<?xml version="1.0"?>
<VTKFile type="UnstructuredGrid"  version="0.1"  >
<UnstructuredGrid>
<Piece  NumberOfPoints="818" NumberOfCells="1467">
<Points>
<DataArray  type="Float64"  NumberOfComponents="3"  format="ascii">0.75 0.25 0  0 0 0  2 -0.25 0  4 -0.25 0  4.5 0.25 0  2 0.25 0  1 1 0  5 0.75 0  3 0.75 0  0.5 4.25 0  0.5 2.25 0  1 2.25 0  1 4.75 0  0 1.25 0  0 3.75 0  0.7844645405527362 -0.09805806756909202 0  0.5 3.542893218813453 0  0.6519419324309079 1.034464540552736 0  4.292893218813452 0.75 0  2 0.875 0  1 3.335786437626905 0  0 2.5 0  3.085786437626905 0.25 0  1 4.042893218813452 0  0.5 2.896446609406726 0  0 1.875 0  3 -0.25 0  3.792893218813453 0.25 0  0 3.125 0  1 2.792893218813453 0  3.646446609406726 0.75 0  0.575970966215454 1.642232270276368 0  1 1.625 0  1.392232270276368 -0.174029033784546 0  1.375 0.25 0  0 0.625 0  2.542893218813453 0.25 0  2.5 0.8125 0  1.5 0.9375 0  3.5 -0.25 0  2.5 -0.25 0  1.6875 0.25 0  1.0625 0.25 0  0.875 0.625 0  0.700970966215454 0.6422322702763681 0  0 0.3125 0  0.375 0.125 0  0.3922322702763681 -0.04902903378454601 0  0.3464664973773267 0.7970996614213204 0  2.271446609406726 0.25 0  3.439339828220179 0.25 0  3.323223304703363 0.75 0  0.537985483107727 1.946116135138184 0  1 1.9375 0  1 2.521446609406726 0  0.5 2.573223304703363 0  1.715073529411765 0.6268382352941176 0  1 4.396446609406726 0  0.7499999999999999 4.5 0  4.646446609406726 0.75 0  4.75 0.4999999999999999 0  4.146446609406726 0.25 0  4.25 -1.110223024625157e-16 0  0.5 3.896446609406726 0  0.2499999999999999 4 0  3.969669914110089 0.75 0  1 3.689339828220179 0  1.25 0.96875 0  1.2451171875 0.59765625 0  0.6139564493231809 1.338348405414552 0  0 1.5625 0  0.3279717989988726 1.148284298998873 0  2.25 0.84375 0  2.814339828220179 0.25 0  0.3075203580578579 0.4587907161157158 0  1 3.064339828220179 0  0.5 3.21966991411009 0  0 3.4375 0  3.25 -0.25 0  2.75 0.78125 0  2.087890625 0.5625 0  0 2.8125 0  0 0.9375 0  0 2.1875 0  1 1.3125 0  0.2888086455140603 1.760653005313835 0  0.2874220762955581 1.453127664757601 0  1.088348405414552 -0.136043550676819 0  1.696116135138184 -0.212014516892273 0  2.40716991411009 0.522535875028201 0  2.75 -0.25 0  0.2635590489692244 2.054697698336752 0  3.616116523516816 0.01776695296636871 0  0.7359453916154427 2.411611652351682 0  2.25 -0.25 0  0.234375 2.34375 0  2.135723304703363 0.00536165235168154 0  0.2324793696318806 2.65625 0  3.262563132923542 0.4724296564403574 0  1.84375 0.02182631533805432 0  0.7718263153380543 2.09375 0  0.2716371298570349 3.058058261758408 0  0.7494344750330941 2.684345477099655 0  0.2505920269815994 3.329943876276834 0  4.469669914110089 0.5303300858899106 0  0.7803300858899107 4.219669914110089 0  0.7259514805718603 3.381281566461771 0  0.7803300858899106 3.866116523516816 0  3.96966991411009 0.0303300858899106 0  0.2803300858899105 3.719669914110089 0  2.678616523516816 0.01332521472477666 0  2.407090198419469 0.01477782405884989 0  3.616116523516816 0.4696699141100894 0  2.689855585708455 0.5044447872345932 0  3.349460913857858 -0.001814254138490734 0  2.948991814474132 0.01552932241149335 0  4.13128156646177 0.5258883476483185 0  0.7239211319013729 3.058058261758408 0  3.872415489507741 0.5095411611094928 0  0.7939852294895662 1.78125 0  1.53125 0.04398522948956621 0  1.487674840542341 0.4901847565263522 0  3.00724405538993 0.4938835705310333 0  1.75 0.90625 0  3.75 -0.25 0  0.5625 0.1875 0  0.7303932188134525 3.626250389131052 0  0.8165749225167703 1.46875 0  1.21875 0.06657492251677036 0  0.725485483107727 0.446116135138184 0  0.8125 0.4375 0  1.877065693275382 0.453184892906924 0  0.9375 0.8125 0  1.508268243309771 0.7134447566805204 0  0.7990602752468996 1.207170358529876 0  0.90625 0.08973643419346128 0  0.5185463530894219 0.519838968760755 0  0.5 4.073223304703363 0  0.3749999999999999 4.125 0  4.323223304703363 0.25 0  4.375 0.1249999999999999 0  1.050226080907534 0.4782380404537671 0  0.1875 0.0625 0  0 0.15625 0  0.196116135138184 -0.02451451689227301 0  0.2231599859012479 0.2680200422962565 0  3.440182663124321 0.5790262201770005 0  0.2020362539169701 2.862028966727587 0  3.125 -0.08832350104942926 0  0.1883754287462272 3.530688916702622 0  1.21875 0.25 0  1 3.512563132923542 0  0.6764564493231809 0.8383484054145521 0  0.5883484054145521 -0.07354355067681902 0  0.8398029595895056 3.218948371592812 0  0.2132971904217038 0.9661657857638748 0  0 0.78125 0  0.5209698255699238 0.7133734885591143 0  0.4503536514315889 0.9786500668966831 0  0.2076915826743173 0.6416792219432185 0  2.856519513032049 0.6177811042563924 0  1 2.928616523516816 0  3.161611652351682 0.75 0  1.916720080301858 0.6829679034442724 0  1.672266716801611 0.4405425357863958 0  3.96966991411009 0.25 0  1.066781649073149 0.6699599996672357 0  0.6907632762372584 2.868067288178302 0  0.4555265649540495 0.3424282174643063 0  1.21668432001436 0.78360936544389 0  1.313806319838196 0.4252282586228372 0  3.185142251120063 0.09008160278313711 0  2.135723304703363 0.25 0  2.234505352633406 0.4384599550512403 0  2.608765720018767 0.6670007601501338 0  0.8198947473657886 0.9558684175447372 0  0.7058684175447372 0.06989474736578863 0  0.5 2.734834957055044 0  2.260992539886939 0.6500700008811391 0  3.795869517981131 -0.0597108954054542 0  0.5 3.71966991411009 0  0 1.09375 0  3.262563132923542 0.25 0  1 4.219669914110089 0  0.875 4.625 0  1 4.573223304703363 0  4.875 0.625 0  4.823223304703363 0.75 0  4.469669914110089 0.75 0  4.125 -0.1250000000000001 0  0.625 4.375 0  4.625 0.3749999999999999 0  0.1249999999999999 3.875 0  3.616116523516816 0.25 0  1 3.866116523516816 0  0.694262136722149 4.042893218813452 0  0.1906560852039034 1.285137415707464 0  0.5 2.411611652351682 0  0.3308137920995923 2.500590748832688 0  0.1815952455106 1.607370612572814 0  0 0.46875 0  0.5949637077693175 1.49029033784546 0  0.4226601106011968 1.315998178816079 0  0.6329491908770444 1.186406472983644 0  0.4320842051675812 1.547088412582813 0  2.125 0.859375 0  0.6699048204885517 3.220882407922834 0  4.301636283129006 0.4396946921655893 0  0 1.40625 0  0.3766167534770592 0.6151964092339715 0  2.875 -0.25 0  0 2.96875 0  0.1653985249053466 2.504983136602755 0  3.727176504358874 0.5994596821586893 0  3.459846813657405 0.4144616588158379 0  2.814656367504452 -0.09011091765882974 0  0.5 3.381281566461771 0  0.3468121364200137 3.469779092167198 0  2.067861652351682 0.3995235294167145 0  0.181852409119842 0.8044173030485622 0  0.342131129965669 2.77761334848157 0  0.1591260878204748 3.1861067260949 0  0 1.71875 0  0.5 3.058058261758408 0  3.484834957055044 0.75 0  4.13128156646177 0.75 0  3.808058261758408 0.75 0  1.375 0.953125 0  0.6773986202352672 2.244046778748645 0  0.5189927415538635 2.098058067569092 0  0.8388169200230938 2.240650181295278 0  1 2.385723304703363 0  0.1621991464553732 1.122828132180541 0  4.058058261758408 0.3835024355825669 0  0.1765919183961606 1.899123400090954 0  0 2.03125 0  0.84162199491885 2.81501455161969 0  2.542315635874096 -0.08646175370514203 0  2.84699940687038 0.4525707381170703 0  0.6322427069825276 3.808058261758408 0  1.848058067569092 -0.2310072584461365 0  1.94122119384032 -0.1029663487768788 0  1.063574437333265 0.09265221344022306 0  0.7431526634116695 1.620508994627148 0  1.370508994627147 -0.006847336588330449 0  1.691189739895822 0.0849409808883908 0  0.7102041511586388 1.932344835250979 0  0.5569782246615904 1.794174202707276 0  2.950063132923542 0.25 0  0.90625 0.25 0  1.84375 0.25 0  1.53125 0.25 0  0 2.65625 0  0 2.34375 0  1 1.15625 0  1 1.46875 0  1 1.78125 0  1 2.09375 0  0 3.59375 0  0 3.28125 0  0.3671728545238024 1.91548857130656 0  4.325973096298172 0.5956562233506 0  1.24029033784546 -0.1550362922306825 0  3.825711406524689 0.09544563168384024 0  1.625 0.921875 0  1.653156168984253 0.7692030401370287 0  2.375 -0.25 0  2.27472926822759 -0.08568266044027441 0  0.1521310782439045 0.4134673781906418 0  0.4848189282343908 1.1324779196198 0  0.3358172581002148 2.207992647950609 0  1.544174202707276 -0.1930217753384095 0  0.9364064729836441 -0.1170508091229555 0  1.125 0.984375 0  0.8471310683610745 4.007980638911522 0  0.6126792943060756 0.3365424794406562 0  0.850768130164312 2.969465687535803 0  1.644206836021766 -0.06435706276321013 0  2.45650482645157 0.6665831607485503 0  2.40716991411009 0.25 0  2.542521836902842 0.4198782008918596 0  2.678616523516816 0.25 0  0.873872846740445 3.424174785275223 0  1.373795061992237 0.7955646549967906 0  3.625 -0.25 0  2.067783257431581 0.7157702568835523 0  3.080805826175841 0.6241248693908107 0  1 2.65716991411009 0  0.8360132672207536 2.543362906081544 0  3.242417478527523 0.6222457872094996 0  0.1258721038894845 2.109375 0  0.8655474010931057 3.57023865565284 0  1.991022345091551 0.03639359768473888 0  3.489725188222061 -0.08648404328593318 0  3.527728175868497 0.1338834764831844 0  0.1431417853391524 1.748403306234899 0  0.7999248195469919 0.7541917268176694 0  0.5041917268176693 0.04992481954699185 0  0.144727237356486 1.423458187400926 0  3.375 -0.25 0  0.8544829369904072 1.969727084723336 0  2.084276530670035 -0.1310435907879178 0  0.351750978914064 2.929113754937353 0  0.1336048533321976 3.674201481624954 0  3.582118172169233 0.61117342507885 0  1.39620661760173 0.6112015078027588 0  0.6179726958077213 2.492417478527522 0  0.1423302305544601 2.993598458633508 0  3.174174785275224 0.3612148282201787 0  0.6343823480541589 4.181387585976174 0  1.140625 0.3686503615930594 0  0.8418238504237667 4.368128994449102 0  4.609834957055044 0.5151650429449556 0  0.3418238504237668 3.868128994449103 0  0.8901650429449554 3.777728175868497 0  3.704504871165134 0.3598349570550447 0  4.484834957055044 0.3901650429449554 0  3.934862443266489 -0.1152416925844479 0  0.3901650429449555 3.631281566461771 0  4.109834957055044 0.0151650429449552 0  0.1171875 2.265625 0  1.078366076880243 0.8103651640050832 0  0.1235682741621352 2.745278973321564 0  0.3728501626657168 2.636036298147391 0  2.203584957055044 0.1276808261758408 0  0.34234
[...]
<CellData  Scalars="f_81"> 
<DataArray  type="Float64"  Name="f_81"  format="ascii">4.0000000000000000e+00   4.0000000000000000e+00   4.0000000000000000e+00   2.0000000000000000e+00   3.0000000000000000e+00   4.0000000000000000e+00   2.0000000000000000e+00   1.0000000000000000e+00   2.0000000000000000e+00   2.0000000000000000e+00   2.0000000000000000e+00   4.0000000000000000e+00   4.0000000000000000e+00   2.0000000000000000e+00   1.0000000000000000e+00   1.0000000000000000e+00   2.0000000000000000e+00   4.0000000000000000e+00   2.0000000000000000e+00   1.0000000000000000e+00   4.0000000000000000e+00   1.0000000000000000e+00   2.0000000000000000e+00   3.0000000000000000e+00   4.0000000000000000e+00   3.0000000000000000e+00   4.0000000000000000e+00   3.0000000000000000e+00   3.0000000000000000e+00   1.0000000000000000e+00   1.0000000000000000e+00   3.0000000000000000e+00   2.0000000000000000e+00   4.0000000000000000e+00   2.0000000000000000e+00   1.0000000000000000e+00   4.0000000000000000e+00   2.0000000000000000e+00   2.0000000000000000e+00   4.0000000000000000e+00   3.0000000000000000e+00   3.0000000000000000e+00   1.0000000000000000e+00   2.0000000000000000e+00   1.0000000000000000e+00   1.0000000000000000e+00   1.0000000000000000e+00   1.0000000000000000e+00   4.0000000000000000e+00   3.0000000000000000e+00   1.0000000000000000e+00   2.0000000000000000e+00   3.0000000000000000e+00   1.0000000000000000e+00   1.0000000000000000e+00   3.0000000000000000e+00   3.0000000000000000e+00   4.0000000000000000e+00   3.0000000000000000e+00   2.0000000000000000e+00   2.0000000000000000e+00   2.0000000000000000e+00   2.0000000000000000e+00   2.0000000000000000e+00   3.0000000000000000e+00   3.0000000000000000e+00   4.0000000000000000e+00   2.0000000000000000e+00   1.0000000000000000e+00   1.0000000000000000e+00   1.0000000000000000e+00   2.0000000000000000e+00   4.0000000000000000e+00   4.0000000000000000e+00   4.0000000000000000e+00   3.0000000000000000e+00   3.0000000000000000e+00   3.0000000000000000e+00   2.0000000000000000e+00   2.0000000000000000e+00   2.0000000000000000e+00   1.0000000000000000e+00   1.0000000000000000e+00   2.0000000000000000e+00   2.0000000000000000e+00   2.0000000000000000e+00   4.0000000000000000e+00   4.0000000000000000e+00   4.0000000000000000e+00   4.0000000000000000e+00   3.0000000000000000e+00   3.0000000000000000e+00   4.0000000000000000e+00   4.0000000000000000e+00   2.0000000000000000e+00   2.0000000000000000e+00   4.0000000000000000e+00   1.0000000000000000e+00   4.0000000000000000e+00   1.0000000000000000e+00   4.0000000000000000e+00   4.0000000000000000e+00   2.0000000000000000e+00   2.0000000000000000e+00   3.0000000000000000e+00   4.0000000000000000e+00   4.0000000000000000e+00   4.0000000000000000e+00   2.0000000000000000e+00   1.0000000000000000e+00   2.0000000000000000e+00   2.0000000000000000e+00   1.0000000000000000e+00   2.0000000000000000e+00   2.0000000000000000e+00   1.0000000000000000e+00   3.0000000000000000e+00   1.0000000000000000e+00   1.0000000000000000e+00   2.0000000000000000e+00   4.0000000000000000e+00   4.0000000000000000e+00   2.0000000000000000e+00   2.0000000000000000e+00   4.0000000000000000e+00   4.0000000000000000e+00   4.0000000000000000e+00   4.0000000000000000e+00   4.0000000000000000e+00   3.0000000000000000e+00   3.0000000000000000e+00   3.0000000000000000e+00   4.0000000000000000e+00   4.0000000000000000e+00   4.0000000000000000e+00   3.0000000000000000e+00   3.0000000000000000e+00   1.0000000000000000e+00   3.0000000000000000e+00   3.0000000000000000e+00   1.0000000000000000e+00   1.0000000000000000e+00   4.0000000000000000e+00   4.0000000000000000e+00   4.0000000000000000e+00   3.0000000000000000e+00   3.0000000000000000e+00   3.0000000000000000e+00   3.0000000000000000e+00   3.0000000000000000e+00   4.0000000000000000e+00   2.0000000000000000e+00   2.0000000000000000e+00   2.0000000000000000e+00   1.0000000000000000e+00   1.0000000000000000e+00   1.0000000000000000e+00   4.0000000000000000e+00   4.0000000000000000e+00   2.0000000000000000e+00   2.0000000000000000e+00   4.0000000000000000e+00   3.0000000000000000e+00   3.0000000000000000e+00   4.0000000000000000e+00   3.0000000000000000e+00   1.0000000000000000e+00   3.0000000000000000e+00   1.0000000000000000e+00   1.0000000000000000e+00   3.0000000000000000e+00   2.0000000000000000e+00   2.0000000000000000e+00   1.0000000000000000e+00   1.0000000000000000e+00   3.0000000000000000e+00   3.0000000000000000e+00   3.0000000000000000e+00   1.0000000000000000e+00   2.0000000000000000e+00   2.0000000000000000e+00   4.0000000000000000e+00   2.0000000000000000e+00   3.0000000000000000e+00   2.0000000000000000e+00   4.0000000000000000e+00   2.0000000000000000e+00   3.0000000000000000e+00   3.0000000000000000e+00   1.0000000000000000e+00   1.0000000000000000e+00   1.0000000000000000e+00   4.0000000000000000e+00   1.0000000000000000e+00   2.0000000000000000e+00   2.0000000000000000e+00   2.0000000000000000e+00   2.0000000000000000e+00   2.0000000000000000e+00   2.0000000000000000e+00   1.0000000000000000e+00   2.0000000000000000e+00   2.0000000000000000e+00   2.0000000000000000e+00   3.0000000000000000e+00   1.0000000000000000e+00   1.0000000000000000e+00   3.0000000000000000e+00   3.0000000000000000e+00   3.0000000000000000e+00   3.0000000000000000e+00   3.0000000000000000e+00   3.0000000000000000e+00   3.0000000000000000e+00   3.0000000000000000e+00   3.0000000000000000e+00   1.0000000000000000e+00   1.0000000000000000e+00   4.0000000000000000e+00   2.0000000000000000e+00   3.0000000000000000e+00   3.0000000000000000e+00   3.0000000000000000e+00   4.0000000000000000e+00   4.0000000000000000e+00   3.0000000000000000e+00   3.0000000000000000e+00   3.0000000000000000e+00   3.0000000000000000e+00   3.0000000000000000e+00   1.0000000000000000e+00   1.0000000000000000e+00   4.0000000000000000e+00   4.0000000000000000e+00   2.0000000000000000e+00   2.0000000000000000e+00   3.0000000000000000e+00   4.0000000000000000e+00   4.0000000000000000e+00   1.0000000000000000e+00   1.0000000000000000e+00   2.0000000000000000e+00   4.0000000000000000e+00   3.0000000000000000e+00   1.0000000000000000e+00   1.0000000000000000e+00   1.0000000000000000e+00   3.0000000000000000e+00   3.0000000000000000e+00   3.0000000000000000e+00   4.0000000000000000e+00   1.0000000000000000e+00   1.0000000000000000e+00   3.0000000000000000e+00   2.0000000000000000e+00   2.0000000000000000e+00   3.0000000000000000e+00   3.0000000000000000e+00   1.0000000000000000e+00   1.0000000000000000e+00   1.0000000000000000e+00   1.0000000000000000e+00   2.0000000000000000e+00   2.0000000000000000e+00   2.0000000000000000e+00   2.0000000000000000e+00   2.0000000000000000e+00   2.0000000000000000e+00   2.0000000000000000e+00   2.0000000000000000e+00   2.0000000000000000e+00   2.0000000000000000e+00   2.0000000000000000e+00   1.0000000000000000e+00   2.0000000000000000e+00   2.0000000000000000e+00   2.0000000000000000e+00   2.0000000000000000e+00   3.0000000000000000e+00   3.0000000000000000e+00   1.0000000000000000e+00   2.0000000000000000e+00   3.0000000000000000e+00   3.0000000000000000e+00   2.0000000000000000e+00   2.0000000000000000e+00   2.0000000000000000e+00   4.0000000000000000e+00   2.0000000000000000e+00   2.0000000000000000e+00   3.0000000000000000e+00   3.0000000000000000e+00   4.0000000000000000e+00   3.0000000000000000e+00   4.0000000000000000e+00   4.0000000000000000e+00   2.0000000000000000e+00   2.0000000000000000e+00   1.0000000000000000e+00   2.0000000000000000e+00   3.0000000000000000e+00   3.0000000000000000e+00   2.0000000000000000e+00   2.0000000000000000e+00   2.0000000000000000e+00   2.0000000000000000e+00   2.0000000000000000e+00   2.0000000000000000e+00   1.0000000000000000e+00   1.0000000000000000e+00   3.0000000000000000e+00   3.0000000000000000e+00   3.0000000000000000e+00   3.0000000000000000e+00   3.0000000000000000e+00   3.0000000000000000e+00   3.0000000000000000e+00   3.0000000000000000e+00   1.0000000000000000e+00   1.0000000000000000e+00   1.0000000000000000e+00   1.0000000000000000e+00   1.0000000000000000e+00   1.0000000000000000e+00   1.0000000000000000e+00   2.0000000000000000e+00   2.0000000000000000e+00   3.0000000000000000e+00   3.0000000000000000e+00   2.0000000000000000e+00   2.0000000000000000e+00   2.0000000000000000e+00   2.0000000000000000e+00   1.0000000000000000e+00   1.0000000000000000e+00   4.0000000000000000e+00   4.0000000000000000e+00   3.0000000000000000e+00   3.0000000000000000e+00   1.0000000000000000e+00   1.0000000000000000e+00   4.0000000000000000e+00   4.0000000000000000e+00   4.0000000000000000e+00   4.0000000000000000e+00   4.0000000000000000e+00   4.0000000000000000e+00   1.0000000000000000e+00   1.0000000000000000e+00   4.0000000000000000e+00   4.0000000000000000e+00   4.0000000000000000e+00   1.0000000000000000e+00   1.0000000000000000e+00   1.0000000000000000e+00   2.0000000000000000e+00   3.0000000000000000e+00   3.0000000000000000e+00   4.0000000000000000e+00   4.0000000000000000e+00   3.0000000000000000e+00   3.0000000000000000e+00   3.0000000000000000e+00   3.0000000000000000e+00   2.0000000000000000e+00   2.0000000000000000e+00   2.0000000000000000e+00   2.0000000000000000e+00   1.0000000000000000e+00   1.0000000000000000e+00   1.0000000000000000e+00   1.0000000000000000e+00   1.0000000000000000e+00   1.0000000000000000e+00   1.0000000000000000e+00   1.0000000000000000e+00   2.0000000000000000e+00   2.0000000000000000e+00   2.0000000000000000e+00   2.0000000000000000e+00   2.0000000000000000e+00   2.0000000000000000e+00   3.0000000000000000e+00   4.0000000000000000e+00   4.0000000000000000e+00   3.0000000000000000e+00   4.0000000000000000e+00   3.0000000000000000e+00   3.0000000000000000e+00   3.0000000000000000e+00   3.0000000000000000e+00   4.0000000000000000e+00   4.0000000000000000e+00   4.0000000000000000e+00   4.0000000000000000e+00   2.0000000000000000e+00   2.0000000000000000e+00   2.0000000000000000e+00   2.0000000000000000e+00   1.0000000000000000e+00   2.0000000000000000e+00   4.0000000000000000e+00   4.0000000000000000e+00   4.0000000000000000e+00   4.0000000000000000e+00   3.0000000000000000e+00   3.0000000000000000e+00   1.0000000000000000e+00   2.0000000000000000e+00   1.0000000000000000e+00   1.0000000000000000e+00   1.0000000000000000e+00   4.0000000000000000e+00   4.0000000000000000e+00   3.0000000000000000e+00   3.0000000000000000e+00   3.0000000000000000e+00   3.0000000000000000e+00   3.0000000000000000e+00   3.0000000000000000e+00   3.0000000000000000e+00   3.0000000000000000e+00   1.0000000000000000e+00   1.0000000000000000e+00   3.0000000000000000e+00   3.0000000000000000e+00   4.0000000000000000e+00   3.0000000000000000e+00   3.0000000000000000e+00   3.0000000000000000e+00   3.0000000000000000e+00   1.0000000000000000e+00   1.0000000000000000e+00   1.0000000000000000e+00   1.0000000000000000e+00   3.0000000000000000e+00   3.0000000000000000e+00   2.0000000000000000e+00   2.0000000000000000e+00   1.0000000000000000e+00   1.0000000000000000e+00   4.0000000000000000e+00   4.0000000000000000e+00   4.0000000000000000e+00   4.0000000000000000e+00   4.0000000000000000e+00   4.0000000000000000e+00   2.0000000000000000e+00   2.0000000000000000e+00   1.0000000000000000e+00   3.0000000000000000e+00   4.0000000000000000e+00   4.0000000000000000e+00   2.0000000000000000e+00   2.0000000000000000e+00   4.0000000000000000e+00   4.0000000000000000e+00   1.0000000000000000e+00   1.0000000000000000e+00   4.0000000000000000e+00   2.0000000000000000e+00   2.0000000000000000e+00   2.0000000000000000e+00   3.0000000000000000e+00   3.0000000000000000e+00   3.0000000000000000e+00   1.0000000000000000e+00   1.0000000000000000e+00   2.0000000000000000e+00   2.0000000000000000e+00   3.0000000000000000e+00   3.0000000000000000e+00   3.0000000000000000e+00   3.0000000000000000e+00   1.0000000000000000e+00   2.0000000000000000e+00   1.0000000000000000e+00   3.0000000000000000e+00   3.0000000000000000e+00   3.0000000000000000e+00   3.0000000000000000e+00   4.0000000000000000e+00   4.0000000000000000e+00   2.0000000000000000e+00   2.0000000000000000e+00   4.0000000000000000e+00   4.0000000000000000e+00   2.0000000000000000e+00   2.0000000000000000e+00   3.0000000000000000e+00   3.0000000000000000e+00   2.0000000000000000e+00   2.0000000000000000e+00   2.0000000000000000e+00   2.0000000000000000e+00   4.0000000000000000e+00   4.0000000000000000e+00   1.0000000000000000e+00   1.0000000000000000e+00   3.0000000000000000e+00   1.0000000000000000e+00   1.0000000000000000e+00   3.0000000000000000e+00   3.0000000000000000e+00   2.0000000000000000e+00   2.0000000000000000e+00   4.0000000000000000e+00   4.0000000000000000e+00   3.0000000000000000e+00   3.0000000000000000e+00   2.0000000000000000e+00   2.0000000000000000e+00   2.0000000000000000e+00   2.0000000000000000e+00   3.0000000000000000e+00   4.0000000000000000e+00   3.0000000000000000e+00   1.0000000000000000e+00   1.0000000000000000e+00   4.0000000000000000e+00   4.0000000000000000e+00   4.0000000000000000e+00   4.0000000000000000e+00   3.0000000000000000e+00   4.0000000000000000e+00   2.0000000000000000e+00   2.0000000000000000e+00   3.0000000000000000e+00   3.0000000000000000e+00   3.0000000000000000e+00   4.0000000000000000e+00   4.0000000000000000e+00   4.0000000000000000e+00   4.0000000000000000e+00   1.0000000000000000e+00   1.0000000000000000e+00   3.0000000000000000e+00   3.0000000000000000e+00   4.0000000000000000e+00   4.0000000000000000e+00   4.0000000000000000e+00   4.0000000000000000e+00   2.0000000000000000e+00   2.0000000000000000e+00   3.0000000000000000e+00   1.0000000000000000e+00   1.0000000000000000e+00   1.0000000000000000e+00   1.0000000000000000e+00   1.0000000000000000e+00   2.0000000000000000e+00   2.0000000000000000e+00   4.0000000000000000e+00   4.0000000000000000e+00   4.0000000000000000e+00   4.0000000000000000e+00   4.0000000000000000e+00   4.0000000000000000e+00   4.0000000000000000e+00   4.0000000000000000e+00   1.0000000000000000e+00   1.0000000000000000e+00   3.0000000000000000e+00   3.0000000000000000e+00   3.0000000000000000e+00   3.0000000000000000e+00   3.0000000000000000e+00   3.0000000000000000e+00   1.0000000000000000e+00   1.0000000000000000e+00   1.0000000000000000e+00   4.0000000000000000e+00   4.0000000000000000e+00   4.0000000000000000e+00   4.0000000000000000e+00   3.0000000000000000e+00   3.0000000000000000e+00   3.0000000000000000e+00   3.0000000000000000e+00   2.0000000000000000e+00   1.0000000000000000e+00   1.0000000000000000e+00   2.0000000000000000e+00   2.0000000000000000e+00   1.0000000000000000e+00   1.0000000000000000e+00   4.0000000000000000e+00   3.0000000000000000e+00   4.0000000000000000e+00   4.0000000000000000e+00   1.0000000000000000e+00   1.0000000000000000e+00   4.0000000000000000e+00   4.0000000000000000e+00   3.0000000000000000e+00   3.0000000000000000e+00   3.0000000000000000e+00   3.0000000000000000e+00   3.0000000000000000e+00   3.0000000000000000e+00   3.0000000000000000e+00   3.0000000000000000e+00   3.0000000000000000e+00   3.0000000000000000e+00   2.0000000000000000e+00   2.0000000000000000e+00   1.0000000000000000e+00   1.0000000000000000e+00   3.0000000000000000e+00   3.0000000000000000e+00   1.0000000000000000e+00   1.0000000000000000e+00   3.0000000000000000e+00   3.0000000000000000e+00   3.0000000000000000e+00   3.0000000000000000e+00   3.0000000000000000e+00   3.0000000000000000e+00   3.0000000000000000e+00   3.0000000000000000e+00   2.0000000000000000e+00   2.0000000000000000e+00   4.0000000000000000e+00   4.0000000000000000e+00   4.0000000000000000e+00   4.0000000000000000e+00   4.0000000000000000e+00   4.0000000000000000e+00   4.0000000000000000e+00   4.0000000000000000e+00   4.0000000000000000e+00   3.0000000000000000e+00   1.0000000000000000e+00   1.0000000000000000e+00   4.0000000000000000e+00   3.0000000000000000e+00   3.0000000000000000e+00   1.0000000000000000e+00   1.0000000000000000e+00   3.0000000000000000e+00   3.0000000000000000e+00   1.0000000000000000e+00   1.0000000000000000e+00   2.0000000000000000e+00   2.0000000000000000e+00   2.0000000000000000e+00   2.0000000000000000e+00   2.0000000000000000e+00   2.0000000000000000e+00   4.0000000000000000e+00   4.0000000000000000e+00   2.0000000000000000e+00   2.0000000000000000e+00   1.0000000000000000e+00   1.0000000000000000e+00   1.0000000000000000e+00   1.0000000000000000e+00   2.0000000000000000e+00   2.0000000000000000e+00   1.0000000000000000e+00   1.0000000000000000e+00   2.0000000000000000e+00   2.0000000000000000e+00   1.0000000000000000e+00   1.0000000000000000e+00   1.0000000000000000e+00   1.0000000000000000e+00   4.0000000000000000e+00   4.0000000000000000e+00   4.0000000000000000e+00   4.0000000000000000e+00   3.0000000000000000e+00   3.0000000000000000e+00   4.0000000000000000e+00   4.0000000000000000e+00   1.0000000000000000e+00   1.0000000000000000e+00   3.0000000000000000e+00   3.0000000000000000e+00   3.0000000000000000e+00   3.0000000000000000e+00   3.0000000000000000e+00   3.0000000000000000e+00   2.0000000000000000e+00   2.0000000000000000e+00   3.0000000000000000e+00   3.0000000000000000e+00   4.0000000000000000e+00   4.0000000000000000e+00   3.0000000000000000e+00   3.0000000000000000e+00   1.0000000000000000e+00   1.0000000000000000e+00   4.0000000000000000e+00   4.0000000000000000e+00   2.0000000000000000e+00   2.0000000000000000e+00   1.0000000000000000e+00   1.0000000000000000e+00   4.0000000000000000e+00   4.0000000000000000e+00   4.0000000000000000e+00   1.0000000000000000e+00   1.0000000000000000e+00   1.0000000000000000e+00   1.0000000000000000e+00   2.0000000000000000e+00   2.0000000000000000e+00   3.0000000000000000e+00   3.0000000000000000e+00   2.0000000000000000e+00   2.0000000000000000e+00   2.0000000000000000e+00   2.0000000000000000e+00   4.0000000000000000e+00   4.0000000000000000e+00   2.0000000000000000e+00   1.0000000000000000e+00   3.0000000000000000e+00   3.0000000000000000e+00   4.0000000000000000e+00   4.0000000000000000e+00   2.0000000000000000e+00   2.0000000000000000e+00   1.0000000000000000e+00   1.0000000000000000e+00   3.0000000000000000e+00   3.0000000000000000e+00   2.0000000000000000e+00   2.0000000000000000e+00   4.0000000000000000e+00   4.0000000000000000e+00   3.0000000000000000e+00   3.0000000000000000e+00   3.0000000000000000e+00   3.0000000000000000e+00   3.0000000000000000e+00   3.0000000000000000e+00   2.0000000000000000e+00   2.0000000000000000e+00   1.0000000000000000e+00   1.0000000000000000e+00   2.0000000000000000e+00   2.0000000000000000e+00   2.0000000000000000e+00   2.0000000000000000e+00   2.0000000000000000e+00   2.0000000000000000e+00   3.0000000000000000e+00   3.0000000000000000e+00   4.0000000000000000e+00   4.0000000000000000e+00   2.0000000000000000e+00   2.0000000000000000e+00   4.0000000000000000e+00   4.0000000000000000e+00   4.0000000000000000e+00   4.0000000000000000e+00   4.0000000000000000e+00   4.0000000000000000e+00   3.0000000000000000e+00   3.0000000000000000e+00   1.0000000000000000e+00   1.0000000000000000e+00   4.0000000000000000e+00   4.0000000000000000e+00   1.0000000000000000e+00   1.0000000000000000e+00   4.0000000000000000e+00   4.0000000000000000e+00   3.0000000000000000e+00   3.0000000000000000e+00   2.0000000000000000e+00   2.0000000000000000e+00   3.0000000000000000e+00   3.0000000000000000e+00   1.0000000000000000e+00   1.0000000000000000e+00   2.0000000000000000e+00   1.0000000000000000e+00   2.0000000000000000e+00   2.0000000000000000e+00   2.0000000000000000e+00   2.0000000000000000e+00   1.0000000000000000e+00   1.0000000000000000e+00   2.0000000000000000e+00   2.0000000000000000e+00   2.0000000000000000e+00   2.0000000000000000e+00   1.0000000000000000e+00   1.0000000000000000e+00   4.0000000000000000e+00   4.0000000000000000e+00   3.0000000000000000e+00   3.0000000000000000e+00   1.00000000000000