<?xml version="1.0"?>
<VTKFile type="UnstructuredGrid"  version="0.1"  >
<UnstructuredGrid>
<Piece  NumberOfPoints="1412" NumberOfCells="2594">
<Points>
<DataArray  type="Float64"  NumberOfComponents="3"  format="ascii">0.75 0.25 0  0 0 0  2 -0.25 0  4 -0.25 0  4 0.15 0  2 0.15 0  1 1 0  4 0.75 0  3 0.75 0  0.4 4.25 0  0.4 2.25 0  1 2.25 0  1 4.25 0  0 1.25 0  0 4.25 0  0.7844645405527362 -0.09805806756909202 0  0.6137213819618628 1.028734960217927 0  2 0.875 0  0 2.75 0  3 0.15 0  0.4 3.25 0  0 2 0  3 -0.25 0  0 3.5 0  1 3.25 0  0.4 2.75 0  0.4 3.75 0  1.375 0.2 0  1.5 0.9375 0  1.392232270276368 -0.174029033784546 0  0.5068606909809314 1.639367480108963 0  1 1.625 0  0 0.625 0  2.5 0.8125 0  2.5 0.15 0  2.5 -0.25 0  3.5 0.15 0  3.5 0.75 0  3.5 -0.25 0  1 3.75 0  1 2.75 0  1.7145 0.5125 0  0.875 0.625 0  0.6818606909809314 0.6393674801089633 0  0 0.3125 0  0.375 0.125 0  0.3922322702763681 -0.04902903378454601 0  2.20859375 0.5125 0  1 1.9375 0  0.4534303454904657 1.944683740054482 0  2.7125 0.48125 0  0.7 2.5 0  0.7 3 0  0.7 3.5 0  3.25 0.45 0  4 0.45 0  0.7 4.25 0  0 3.125 0  0 3.875 0  0 2.375 0  0 1.625 0  1.332818232232114 0.5864926725030316 0  0.3378197929393335 0.7798062525453338 0  1 1.3125 0  0.5602910364713971 1.334051220163445 0  1.696116135138184 -0.212014516892273 0  1.6875 0.175 0  1.088348405414552 -0.136043550676819 0  1.0625 0.225 0  0.3028046989705612 0.4493593979411225 0  0.2945258134591954 1.105154311655302 0  3.25 -0.25 0  3.25 0.15 0  2.25 -0.25 0  2.25 0.15 0  2.75 0.15 0  2.75 -0.25 0  3.75 0.15 0  3.75 -0.25 0  3.671666666666667 0.4694444444444444 0  0.2589164270741047 1.438643948722094 0  0.7 2.145166714796825 0  0 0.9375 0  0.7 3.91 0  0.7253198680176475 1.834931121293564 0  0.2072152550168758 1.8125 0  0.4 2.5 0  0.4 4 0  0.2 4.25 0  0.4 3 0  2.978708410351202 0.4219096580406655 0  0.9375 0.8125 0  1.25 0.96875 0  0.7502969578784774 1.524635541612859 0  2.455311434009706 0.4124535140315094 0  2.75 0.78125 0  2.25 0.84375 0  1.75 0.90625 0  3.25 0.75 0  0.6541666666666667 3.25 0  0.4 3.5 0  1 3.5 0  1 3 0  0.6541666666666667 2.75 0  1 2.5 0  3.75 0.75 0  1 4 0  1.961546875 0.4133927801724138 0  0.5625 0.1875 0  0.8174152191745825 1.15625 0  1.552306387958494 0.6972696358049337 0  1.870683974874859 -0.04999999999999996 0  0.2 2.875 0  0 2.5625 0  3.625 -0.05000000000000002 0  2.625 -0.05000000000000002 0  2.125 -0.05000000000000002 0  3.125 -0.05000000000000002 0  0 2.1875 0  0 3.3125 0  0.2379342451848873 2.06430520770418 0  0 3.6875 0  3.375 -0.04999999999999996 0  2.375 -0.04999999999999996 0  2.875 -0.04999999999999996 0  4 -0.04999999999999999 0  0.7159303454904657 0.4446837400544816 0  0.8125 0.4375 0  2.013450691719193 0.6414742867759148 0  1.54475 0.35625 0  1.093630070693199 0.483537533137437 0  1.565637398857925 -0.02131620613321533 0  1.16404853081492 0.7500279383701602 0  0.2 3.40625 0  0.2146484375 2.625 0  1.206056452554537 0.05383065693170622 0  0.9555245967416393 0.03589418094100619 0  0 4.0625 0  0.5100687635309494 0.5089809280083913 0  3.464749770917037 0.3747914757641974 0  0.1875 0.0625 0  0 0.15625 0  0.196116135138184 -0.02451451689227301 0  0.21953125 3.125 0  0.21953125 3.875 0  0.21953125 2.375 0  2.354296875 0.6625 0  0.7833333333333332 3.705 0  0.214169921875 3.6280625 0  0.2252086746776465 0.2618739759670606 0  2.544561424798298 0.5939363348115076 0  1.277820947095264 0.3849420818532812 0  1.750557251695503 0.7077244414344372 0  0.647791036471397 0.8340512201634449 0  0.5883484054145521 -0.07354355067681902 0  2.85625 0.615625 0  2.621650934450685 0.3057451552580515 0  2.125 0.3027522521052893 0  0.85 4.25 0  0.85 3.375 0  0.85 2.625 0  0.8270833333333334 2.8475 0  0.85 3.125 0  0.85 2.375 0  3.842538811430832 0.5729490095256931 0  3.375 0.6 0  3.125 0.6 0  3.828661202185792 0.338615664845173 0  0.55 3.625 0  0.55 4.25 0  0.55 2.375 0  1.363623660677335 0.7871375941722774 0  3.128431374479478 0.3 0  0.1929412862869544 1.620023083277969 0  0.2227182712395543 4.063174616991644 0  3.8125 -0.07187500000000002 0  0 2.9375 0  0 1.8125 0  0 1.4375 0  0.8133411116394247 1.345814815205753 0  0 0.78125 0  0.1692468659890125 0.8593749999999999 0  0.8182203389830509 4.060932203389831 0  0.5817796610169491 4.060932203389831 0  0.2034805718779232 0.6269626436295637 0  0 0.46875 0  0.5040168377423664 0.6953209397458892 0  0.427884261293323 0.9573456960439302 0  0.4482309832076171 0.333879585459108 0  1.384457069573941 0.009606704500686097 0  0.8205977886701885 1.998858262592905 0  0.8075934850669365 0.9599688383110212 0  1.84375 0.1625 0  1.789189396064148 0.3412166376894034 0  3.628822448864718 0.2896117270742661 0  0.7058684175447372 0.06989474736578863 0  0.55 2.601701388888889 0  0.55 2.898298611111111 0  0.55 3.398298611111111 0  0.55 3.101701388888889 0  2.875 0.2770004475218674 0  0.3734693975497718 1.282229726420018 0  0.1867744097780238 1.265654702790875 0  0.5870062092166299 1.181393090190686 0  2.302487304197914 0.3204723689992426 0  0.3452299103338084 1.705497186093388 0  0.8299771304286836 1.687202406972237 0  1.500123396257726 0.5278323820372941 0  0.8646666666666667 3.8575 0  0.5670731707317074 3.797987804878049 0  0.1439976388311685 1.027063397708053 0  1 1.46875 0  2.1820703125 0.6840283203124999 0  3.625 0.75 0  3.545470236735937 0.5850248027200528 0  0.90625 0.2375 0  0.6656856610972064 1.681747559441621 0  0.4801455182356986 1.792025610081722 0  1.874233836105559 0.5532088940043913 0  0.375293528176631 1.548387496016627 0  0.6270177093588823 1.98305923062607 0  0.4267151727452329 2.097341870027241 0  0.8438654442121505 2.215138533054581 0  0.5561345557878495 2.215138533054581 0  0.3723187820182575 0.5977753853569071 0  1.039960307048331 0.640268466388115 0  1.21875 0.2125 0  1.53125 0.1875 0  1 1.15625 0  1 1.78125 0  1 2.09375 0  0 1.09375 0  0.2461711746761648 2.220685512344963 0  3.375 0.15 0  3.318954038331897 0.3026891826382905 0  0.5335758637261643 1.486709350136204 0  0.9950164803020526 0.364268503775658 0  0.7878069036377863 0.7582310321207379 0  1.716021492234477 -0.05840802244373186 0  1.544174202707276 -0.1930217753384095 0  1.24029033784546 -0.1550362922306825 0  0.9364064729836441 -0.1170508091229555 0  1.848058067569092 -0.2310072584461365 0  0.1478568825515178 0.4036884940261091 0  2.70375 0.6346875 0  0.4492581250142201 1.110694784830959 0  1.875 0.890625 0  0.85 3.558462059620596 0  4 0.6 0  4 0.3 0  0.7000000000000001 2.309031881064403 0  0.6035738916244 0.3373546997649752 0  1.125 0.984375 0  0.5041917268176693 0.04992481954699185 0  3.701982061499162 0.6121935674274068 0  3.875 0.15 0  0.1132312835926446 2.277192291397779 0  0.13360451897468 3.753338628304645 0  0.1350881048900136 2.498398403537891 0  0.109765625 3.96875 0  0.109765625 3.03125 0  0.1460203538776797 3.26119824506095 0  1.625 0.921875 0  0.9502765775519859 0.5016623713956873 0  1.8986704624586 0.7407352261164221 0  0.8726049840239235 1.858978239310943 0  0.7109369264890336 1.248787767224887 0  0.1416357965225223 1.948276755947085 0  0.3461241190092494 1.849159179399761 0  0.8385416666666665 2.98625 0  1.915269039022258 0.2820208811141249 0  0.2798274096625894 0.9578280718774481 0  1.18427877012272 0.6021331949588979 0  0.1111120897723949 4.144397104242779 0  0.5053682204524438 0.8377863152691659 0  2.851248058132063 0.4768988796726765 0  3.114386167132671 0.4356461460518435 0  0.1036076275084379 1.723415744683363 0  2.625 0.796875 0  2.354051598765969 0.5169735813093584 0  2.991070519348269 0.6154754327902241 0  0.6552939971749373 1.429343380888152 0  0.8863796639259978 1.546875 0  1.407465955698945 0.3350621857286667 0  1.149723711500617 0.3324838937577083 0  0.1276490591212884 2.14267060172146 0  0.2667869105799955 3.750444595740402 0  2.489858069807724 0.283304479809752 0  2.587104298652666 0.4348941894798088 0  2.095933096936429 0.4358684743350931 0  0.3909613984268937 1.415194979486666 0  0.09411655345431705 1.53125 0  0.2675485767266064 2.498450863444712 0  2.125 0.859375 0  0.5697225869394688 3.929723089466525 0  0.4 4.125 0  1 4.125 0  1.384132786198956 0.4649311550157939 0  0.8390527291285373 0.1142517494209401 0  2.754762457704482 0.3481069152938936 0  2.375 0.15 0  0.1296661521543377 1.391008043261292 0  3.875 -0.25 0  4 -0.15 0  0.1153499750320644 0.5303526175834734 0  0.1244433970036293 0.734048127362056 0  1.757331924502709 0.06508655628385909 0  3.002698407526564 0.2776716585853439 0  0.96875 0.90625 0  1.99784198743743 0.009588742148393475 0  1.981194004740883 -0.1203529968917409 0  0.2723870046498599 3.241465383130515 0  0.6750170765027322 3.124621186247723 0  0.6750170765027322 2.624621186247723 0  0.5270833333333333 3.228531565434845 0  0.7000000000000001 2.870798611111111 0  0.5270833333333333 2.728531565434845 0  0.7168423694779116 3.367710843373494 0  0.1159119721545142 1.155229198287349 0  0.4 3.375 0  1.375 0.953125 0  2.875 0.765625 0  2.375 0.828125 0  1.077434289448007 0.09174140640618206 0  0.2329193726167779 2.998191113467439 0  0.1414740067857984 2.746141589142723 0  0.2708334437768747 2.741608977264837 0  1.062280420017303 0.8229898599942322 0  0.4 3.875 0  1 3.625 0  1 3.875 0  2.875 0.15 0  0.4 3.125 0  3.125 0.15 0  3.125 0.75 0  3.25 0.6229166666666667 0  3.625 0.15 0  3.375 0.75 0  1 2.875 0  1 2.375 0  0.8729166666666667 2.5 0  1 2.625 0  1 3.125 0  0.8729166666666667 3.25 0  1 3.375 0  2.125 0.15 0  2.625 0.15 0  0.4 2.375 0  0.4 3.625 0  0.4 2.875 0  0.4 2.625 0  2.75 -0.1109375 0  2.76375 0.01953125 0  2.5 0.01093750000000002 0  2.48625 -0.11953125 0  2.375 -0.25 0  2.25 -0.1109375 0  2.26375 0.01953125 0  3.5 0.01093750000000002 0  3.48625 -0.11953125 0  3.375 -0.25 0  3.25 0.01093750000000002 0  3.23625 -0.11953125 0  3.125 -0.25 0  3 0.01093750000000002 0  2.98625 -0.11953125 0  2.875 -0.25 0  2.125 -0.25 0  2.625 -0.25 0  3.625 -0.25 0  3.875 0.75 0  0.1322554110656191 3.521936543606654 0  0.5953976216078809 1.85539306008074 0  0.1276032982342497 0.1770815964684993 0  1.67408885746268 0.8067733597014416 0  0.65395471230732
[...]
<CellData  Scalars="f_81"> 
<DataArray  type="Float64"  Name="f_81"  format="ascii">4.0000000000000000e+00   4.0000000000000000e+00   2.0000000000000000e+00   4.0000000000000000e+00   3.0000000000000000e+00   4.0000000000000000e+00   1.0000000000000000e+00   1.0000000000000000e+00   4.0000000000000000e+00   3.0000000000000000e+00   1.0000000000000000e+00   3.0000000000000000e+00   3.0000000000000000e+00   1.0000000000000000e+00   2.0000000000000000e+00   3.0000000000000000e+00   2.0000000000000000e+00   2.0000000000000000e+00   2.0000000000000000e+00   2.0000000000000000e+00   1.0000000000000000e+00   4.0000000000000000e+00   3.0000000000000000e+00   3.0000000000000000e+00   3.0000000000000000e+00   3.0000000000000000e+00   3.0000000000000000e+00   2.0000000000000000e+00   2.0000000000000000e+00   3.0000000000000000e+00   1.0000000000000000e+00   4.0000000000000000e+00   1.0000000000000000e+00   1.0000000000000000e+00   4.0000000000000000e+00   1.0000000000000000e+00   3.0000000000000000e+00   3.0000000000000000e+00   1.0000000000000000e+00   2.0000000000000000e+00   2.0000000000000000e+00   2.0000000000000000e+00   2.0000000000000000e+00   2.0000000000000000e+00   1.0000000000000000e+00   1.0000000000000000e+00   2.0000000000000000e+00   3.0000000000000000e+00   3.0000000000000000e+00   3.0000000000000000e+00   4.0000000000000000e+00   2.0000000000000000e+00   2.0000000000000000e+00   2.0000000000000000e+00   1.0000000000000000e+00   3.0000000000000000e+00   3.0000000000000000e+00   1.0000000000000000e+00   2.0000000000000000e+00   1.0000000000000000e+00   3.0000000000000000e+00   4.0000000000000000e+00   4.0000000000000000e+00   4.0000000000000000e+00   3.0000000000000000e+00   4.0000000000000000e+00   4.0000000000000000e+00   3.0000000000000000e+00   1.0000000000000000e+00   1.0000000000000000e+00   1.0000000000000000e+00   3.0000000000000000e+00   4.0000000000000000e+00   4.0000000000000000e+00   4.0000000000000000e+00   3.0000000000000000e+00   3.0000000000000000e+00   4.0000000000000000e+00   4.0000000000000000e+00   4.0000000000000000e+00   4.0000000000000000e+00   1.0000000000000000e+00   2.0000000000000000e+00   2.0000000000000000e+00   1.0000000000000000e+00   2.0000000000000000e+00   2.0000000000000000e+00   1.0000000000000000e+00   1.0000000000000000e+00   2.0000000000000000e+00   1.0000000000000000e+00   1.0000000000000000e+00   1.0000000000000000e+00   1.0000000000000000e+00   2.0000000000000000e+00   3.0000000000000000e+00   3.0000000000000000e+00   3.0000000000000000e+00   3.0000000000000000e+00   2.0000000000000000e+00   2.0000000000000000e+00   4.0000000000000000e+00   3.0000000000000000e+00   3.0000000000000000e+00   3.0000000000000000e+00   3.0000000000000000e+00   3.0000000000000000e+00   3.0000000000000000e+00   3.0000000000000000e+00   3.0000000000000000e+00   3.0000000000000000e+00   2.0000000000000000e+00   2.0000000000000000e+00   2.0000000000000000e+00   2.0000000000000000e+00   2.0000000000000000e+00   2.0000000000000000e+00   2.0000000000000000e+00   1.0000000000000000e+00   2.0000000000000000e+00   2.0000000000000000e+00   2.0000000000000000e+00   3.0000000000000000e+00   4.0000000000000000e+00   1.0000000000000000e+00   1.0000000000000000e+00   2.0000000000000000e+00   2.0000000000000000e+00   4.0000000000000000e+00   1.0000000000000000e+00   1.0000000000000000e+00   1.0000000000000000e+00   4.0000000000000000e+00   4.0000000000000000e+00   4.0000000000000000e+00   4.0000000000000000e+00   4.0000000000000000e+00   4.0000000000000000e+00   4.0000000000000000e+00   4.0000000000000000e+00   1.0000000000000000e+00   1.0000000000000000e+00   1.0000000000000000e+00   1.0000000000000000e+00   1.0000000000000000e+00   1.0000000000000000e+00   1.0000000000000000e+00   1.0000000000000000e+00   4.0000000000000000e+00   4.0000000000000000e+00   4.0000000000000000e+00   4.0000000000000000e+00   4.0000000000000000e+00   1.0000000000000000e+00   1.0000000000000000e+00   4.0000000000000000e+00   3.0000000000000000e+00   3.0000000000000000e+00   3.0000000000000000e+00   3.0000000000000000e+00   2.0000000000000000e+00   3.0000000000000000e+00   3.0000000000000000e+00   3.0000000000000000e+00   1.0000000000000000e+00   1.0000000000000000e+00   2.0000000000000000e+00   4.0000000000000000e+00   4.0000000000000000e+00   1.0000000000000000e+00   1.0000000000000000e+00   1.0000000000000000e+00   1.0000000000000000e+00   3.0000000000000000e+00   4.0000000000000000e+00   1.0000000000000000e+00   1.0000000000000000e+00   4.0000000000000000e+00   1.0000000000000000e+00   1.0000000000000000e+00   1.0000000000000000e+00   2.0000000000000000e+00   1.0000000000000000e+00   1.0000000000000000e+00   3.0000000000000000e+00   2.0000000000000000e+00   2.0000000000000000e+00   1.0000000000000000e+00   1.0000000000000000e+00   1.0000000000000000e+00   3.0000000000000000e+00   3.0000000000000000e+00   3.0000000000000000e+00   3.0000000000000000e+00   3.0000000000000000e+00   1.0000000000000000e+00   2.0000000000000000e+00   4.0000000000000000e+00   3.0000000000000000e+00   3.0000000000000000e+00   3.0000000000000000e+00   3.0000000000000000e+00   3.0000000000000000e+00   2.0000000000000000e+00   2.0000000000000000e+00   2.0000000000000000e+00   2.0000000000000000e+00   2.0000000000000000e+00   2.0000000000000000e+00   2.0000000000000000e+00   2.0000000000000000e+00   2.0000000000000000e+00   2.0000000000000000e+00   3.0000000000000000e+00   3.0000000000000000e+00   3.0000000000000000e+00   3.0000000000000000e+00   3.0000000000000000e+00   2.0000000000000000e+00   2.0000000000000000e+00   2.0000000000000000e+00   2.0000000000000000e+00   2.0000000000000000e+00   3.0000000000000000e+00   4.0000000000000000e+00   3.0000000000000000e+00   1.0000000000000000e+00   1.0000000000000000e+00   4.0000000000000000e+00   1.0000000000000000e+00   1.0000000000000000e+00   1.0000000000000000e+00   2.0000000000000000e+00   1.0000000000000000e+00   1.0000000000000000e+00   1.0000000000000000e+00   1.0000000000000000e+00   2.0000000000000000e+00   2.0000000000000000e+00   1.0000000000000000e+00   2.0000000000000000e+00   1.0000000000000000e+00   1.0000000000000000e+00   1.0000000000000000e+00   2.0000000000000000e+00   1.0000000000000000e+00   2.0000000000000000e+00   1.0000000000000000e+00   4.0000000000000000e+00   1.0000000000000000e+00   4.0000000000000000e+00   4.0000000000000000e+00   2.0000000000000000e+00   2.0000000000000000e+00   2.0000000000000000e+00   3.0000000000000000e+00   3.0000000000000000e+00   3.0000000000000000e+00   3.0000000000000000e+00   3.0000000000000000e+00   3.0000000000000000e+00   4.0000000000000000e+00   4.0000000000000000e+00   2.0000000000000000e+00   2.0000000000000000e+00   2.0000000000000000e+00   1.0000000000000000e+00   2.0000000000000000e+00   2.0000000000000000e+00   2.0000000000000000e+00   2.0000000000000000e+00   3.0000000000000000e+00   4.0000000000000000e+00   1.0000000000000000e+00   2.0000000000000000e+00   1.0000000000000000e+00   1.0000000000000000e+00   1.0000000000000000e+00   1.0000000000000000e+00   4.0000000000000000e+00   3.0000000000000000e+00   1.0000000000000000e+00   1.0000000000000000e+00   3.0000000000000000e+00   3.0000000000000000e+00   2.0000000000000000e+00   1.0000000000000000e+00   2.0000000000000000e+00   1.0000000000000000e+00   2.0000000000000000e+00   2.0000000000000000e+00   3.0000000000000000e+00   3.0000000000000000e+00   3.0000000000000000e+00   3.0000000000000000e+00   3.0000000000000000e+00   3.0000000000000000e+00   3.0000000000000000e+00   1.0000000000000000e+00   1.0000000000000000e+00   1.0000000000000000e+00   2.0000000000000000e+00   3.0000000000000000e+00   3.0000000000000000e+00   1.0000000000000000e+00   2.0000000000000000e+00   2.0000000000000000e+00   1.0000000000000000e+00   2.0000000000000000e+00   1.0000000000000000e+00   2.0000000000000000e+00   2.0000000000000000e+00   2.0000000000000000e+00   1.0000000000000000e+00   1.0000000000000000e+00   3.0000000000000000e+00   3.0000000000000000e+00   4.0000000000000000e+00   4.0000000000000000e+00   4.0000000000000000e+00   3.0000000000000000e+00   2.0000000000000000e+00   2.0000000000000000e+00   2.0000000000000000e+00   2.0000000000000000e+00   1.0000000000000000e+00   2.0000000000000000e+00   3.0000000000000000e+00   3.0000000000000000e+00   3.0000000000000000e+00   3.0000000000000000e+00   2.0000000000000000e+00   2.0000000000000000e+00   3.0000000000000000e+00   3.0000000000000000e+00   2.0000000000000000e+00   3.0000000000000000e+00   4.0000000000000000e+00   4.0000000000000000e+00   4.0000000000000000e+00   4.0000000000000000e+00   4.0000000000000000e+00   4.0000000000000000e+00   1.0000000000000000e+00   1.0000000000000000e+00   3.0000000000000000e+00   3.0000000000000000e+00   1.0000000000000000e+00   1.0000000000000000e+00   3.0000000000000000e+00   2.0000000000000000e+00   3.0000000000000000e+00   3.0000000000000000e+00   3.0000000000000000e+00   2.0000000000000000e+00   2.0000000000000000e+00   1.0000000000000000e+00   2.0000000000000000e+00   3.0000000000000000e+00   3.0000000000000000e+00   4.0000000000000000e+00   4.0000000000000000e+00   3.0000000000000000e+00   3.0000000000000000e+00   3.0000000000000000e+00   1.0000000000000000e+00   1.0000000000000000e+00   1.0000000000000000e+00   1.0000000000000000e+00   1.0000000000000000e+00   1.0000000000000000e+00   1.0000000000000000e+00   3.0000000000000000e+00   3.0000000000000000e+00   3.0000000000000000e+00   3.0000000000000000e+00   3.0000000000000000e+00   2.0000000000000000e+00   2.0000000000000000e+00   2.0000000000000000e+00   2.0000000000000000e+00   1.0000000000000000e+00   1.0000000000000000e+00   1.0000000000000000e+00   1.0000000000000000e+00   2.0000000000000000e+00   2.0000000000000000e+00   3.0000000000000000e+00   3.0000000000000000e+00   1.0000000000000000e+00   1.0000000000000000e+00   3.0000000000000000e+00   3.0000000000000000e+00   1.0000000000000000e+00   1.0000000000000000e+00   3.0000000000000000e+00   3.0000000000000000e+00   3.0000000000000000e+00   3.0000000000000000e+00   1.0000000000000000e+00   1.0000000000000000e+00   3.0000000000000000e+00   3.0000000000000000e+00   3.0000000000000000e+00   3.0000000000000000e+00   2.0000000000000000e+00   2.0000000000000000e+00   2.0000000000000000e+00   2.0000000000000000e+00   3.0000000000000000e+00   3.0000000000000000e+00   3.0000000000000000e+00   3.0000000000000000e+00   1.0000000000000000e+00   1.0000000000000000e+00   1.0000000000000000e+00   2.0000000000000000e+00   3.0000000000000000e+00   3.0000000000000000e+00   3.0000000000000000e+00   3.0000000000000000e+00   3.0000000000000000e+00   3.0000000000000000e+00   1.0000000000000000e+00   1.0000000000000000e+00   1.0000000000000000e+00   1.0000000000000000e+00   1.0000000000000000e+00   1.0000000000000000e+00   3.0000000000000000e+00   3.0000000000000000e+00   2.0000000000000000e+00   2.0000000000000000e+00   2.0000000000000000e+00   2.0000000000000000e+00   2.0000000000000000e+00   3.0000000000000000e+00   3.0000000000000000e+00   4.0000000000000000e+00   3.0000000000000000e+00   3.0000000000000000e+00   3.0000000000000000e+00   3.0000000000000000e+00   1.0000000000000000e+00   1.0000000000000000e+00   4.0000000000000000e+00   4.0000000000000000e+00   4.0000000000000000e+00   1.0000000000000000e+00   1.0000000000000000e+00   1.0000000000000000e+00   4.0000000000000000e+00   3.0000000000000000e+00   3.0000000000000000e+00   3.0000000000000000e+00   3.0000000000000000e+00   3.0000000000000000e+00   3.0000000000000000e+00   4.0000000000000000e+00   4.0000000000000000e+00   1.0000000000000000e+00   1.0000000000000000e+00   2.0000000000000000e+00   2.0000000000000000e+00   2.0000000000000000e+00   2.0000000000000000e+00   2.0000000000000000e+00   2.0000000000000000e+00   2.0000000000000000e+00   2.0000000000000000e+00   2.0000000000000000e+00   2.0000000000000000e+00   2.0000000000000000e+00   2.0000000000000000e+00   1.0000000000000000e+00   1.0000000000000000e+00   1.0000000000000000e+00   2.0000000000000000e+00   3.0000000000000000e+00   3.0000000000000000e+00   3.0000000000000000e+00   3.0000000000000000e+00   3.0000000000000000e+00   3.0000000000000000e+00   4.0000000000000000e+00   1.0000000000000000e+00   1.0000000000000000e+00   1.0000000000000000e+00   1.0000000000000000e+00   1.0000000000000000e+00   3.0000000000000000e+00   3.0000000000000000e+00   2.0000000000000000e+00   2.0000000000000000e+00   2.0000000000000000e+00   2.0000000000000000e+00   2.0000000000000000e+00   2.0000000000000000e+00   4.0000000000000000e+00   3.0000000000000000e+00   2.0000000000000000e+00   1.0000000000000000e+00   3.0000000000000000e+00   3.0000000000000000e+00   3.0000000000000000e+00   3.0000000000000000e+00   3.0000000000000000e+00   3.0000000000000000e+00   3.0000000000000000e+00   3.0000000000000000e+00   2.0000000000000000e+00   2.0000000000000000e+00   2.0000000000000000e+00   2.0000000000000000e+00   2.0000000000000000e+00   2.0000000000000000e+00   2.0000000000000000e+00   2.0000000000000000e+00   2.0000000000000000e+00   2.0000000000000000e+00   4.0000000000000000e+00   3.0000000000000000e+00   3.0000000000000000e+00   3.0000000000000000e+00   1.0000000000000000e+00   1.0000000000000000e+00   1.0000000000000000e+00   1.0000000000000000e+00   2.0000000000000000e+00   2.0000000000000000e+00   2.0000000000000000e+00   1.0000000000000000e+00   4.0000000000000000e+00   4.0000000000000000e+00   4.0000000000000000e+00   4.0000000000000000e+00   4.0000000000000000e+00   4.0000000000000000e+00   4.0000000000000000e+00   4.0000000000000000e+00   4.0000000000000000e+00   4.0000000000000000e+00   4.0000000000000000e+00   4.0000000000000000e+00   4.0000000000000000e+00   4.0000000000000000e+00   4.0000000000000000e+00   4.0000000000000000e+00   4.0000000000000000e+00   4.0000000000000000e+00   4.0000000000000000e+00   4.0000000000000000e+00   4.0000000000000000e+00   4.0000000000000000e+00   4.0000000000000000e+00   4.0000000000000000e+00   4.0000000000000000e+00   4.0000000000000000e+00   4.0000000000000000e+00   4.0000000000000000e+00   1.0000000000000000e+00   1.0000000000000000e+00   2.0000000000000000e+00   2.0000000000000000e+00   4.0000000000000000e+00   3.0000000000000000e+00   3.0000000000000000e+00   2.0000000000000000e+00   2.0000000000000000e+00   1.0000000000000000e+00   1.0000000000000000e+00   3.0000000000000000e+00   3.0000000000000000e+00   3.0000000000000000e+00   3.0000000000000000e+00   3.0000000000000000e+00   3.0000000000000000e+00   3.0000000000000000e+00   3.0000000000000000e+00   3.0000000000000000e+00   3.0000000000000000e+00   1.0000000000000000e+00   2.0000000000000000e+00   3.0000000000000000e+00   3.0000000000000000e+00   3.0000000000000000e+00   3.0000000000000000e+00   3.0000000000000000e+00   2.0000000000000000e+00   2.0000000000000000e+00   2.0000000000000000e+00   2.0000000000000000e+00   2.0000000000000000e+00   2.0000000000000000e+00   2.0000000000000000e+00   2.0000000000000000e+00   2.0000000000000000e+00   1.0000000000000000e+00   1.0000000000000000e+00   3.0000000000000000e+00   3.0000000000000000e+00   3.0000000000000000e+00   3.0000000000000000e+00   3.0000000000000000e+00   3.0000000000000000e+00   2.0000000000000000e+00   1.0000000000000000e+00   1.0000000000000000e+00   4.0000000000000000e+00   4.0000000000000000e+00   2.0000000000000000e+00   1.0000000000000000e+00   4.0000000000000000e+00   4.0000000000000000e+00   4.0000000000000000e+00   4.0000000000000000e+00   2.0000000000000000e+00   2.0000000000000000e+00   3.0000000000000000e+00   3.0000000000000000e+00   3.0000000000000000e+00   3.0000000000000000e+00   1.0000000000000000e+00   1.0000000000000000e+00   3.0000000000000000e+00   3.0000000000000000e+00   3.0000000000000000e+00   3.0000000000000000e+00   4.0000000000000000e+00   4.0000000000000000e+00   4.0000000000000000e+00   2.0000000000000000e+00   2.0000000000000000e+00   2.0000000000000000e+00   2.0000000000000000e+00   1.0000000000000000e+00   1.0000000000000000e+00   4.0000000000000000e+00   4.0000000000000000e+00   4.0000000000000000e+00   4.0000000000000000e+00   4.0000000000000000e+00   4.0000000000000000e+00   2.0000000000000000e+00   2.0000000000000000e+00   1.0000000000000000e+00   1.0000000000000000e+00   3.0000000000000000e+00   3.0000000000000000e+00   3.0000000000000000e+00   3.0000000000000000e+00   4.0000000000000000e+00   3.0000000000000000e+00   3.0000000000000000e+00   1.0000000000000000e+00   1.0000000000000000e+00   2.0000000000000000e+00   1.0000000000000000e+00   2.0000000000000000e+00   2.0000000000000000e+00   1.0000000000000000e+00   1.0000000000000000e+00   2.0000000000000000e+00   2.0000000000000000e+00   4.0000000000000000e+00   4.0000000000000000e+00   4.0000000000000000e+00   3.0000000000000000e+00   3.0000000000000000e+00   3.0000000000000000e+00   1.0000000000000000e+00   1.0000000000000000e+00   2.0000000000000000e+00   2.0000000000000000e+00   2.0000000000000000e+00   2.0000000000000000e+00   3.0000000000000000e+00   3.0000000000000000e+00   1.0000000000000000e+00   2.0000000000000000e+00   4.0000000000000000e+00   4.0000000000000000e+00   4.0000000000000000e+00   1.0000000000000000e+00   1.0000000000000000e+00   1.0000000000000000e+00   1.0000000000000000e+00   1.0000000000000000e+00   1.0000000000000000e+00   1.0000000000000000e+00   1.0000000000000000e+00   1.0000000000000000e+00   1.0000000000000000e+00   1.0000000000000000e+00   2.0000000000000000e+00   4.0000000000000000e+00   4.0000000000000000e+00   1.0000000000000000e+00   1.0000000000000000e+00   3.0000000000000000e+00   3.0000000000000000e+00   4.0000000000000000e+00   4.0000000000000000e+00   1.0000000000000000e+00   1.0000000000000000e+00   3.0000000000000000e+00   3.0000000000000000e+00   2.0000000000000000e+00   2.0000000000000000e+00   4.0000000000000000e+00   4.0000000000000000e+00   4.0000000000000000e+00   4.0000000000000000e+00   4.0000000000000000e+00   4.0000000000000000e+00   1.0000000000000000e+00   1.0000000000000000e+00   2.0000000000000000e+00   2.0000000000000000e+00   1.0000000000000000e+00   1.0000000000000000e+00   1.0000000000000000e+00   1.0000000000000000e+00   2.0000000000000000e+00   1.0000000000000000e+00   3.0000000000000000e+00   3.0000000000000000e+00   4.0000000000000000e+00   4.0000000000000000e+00   3.0000000000000000e+00   3.0000000000000000e+00   1.0000000000000000e+00   1.0000000000000000e+00   1.0000000000000000e+00   1.0000000000000000e+00   1.0000000000000000e+00   1.0000000000000000e+00   1.0000000000000000e+00   1.0000000000000000e+00   3.0000000000000000e+00   3.0000000000000000e+00   3.0000000000000000e+00   3.0000000000000000e+00   2.0000000000000000e+00   2.0000000000000000e+00   2.0000000000000000e+00   2.0000000000000000e+00   1.0000000000000000e+00   1.0000000000000000e+00   1.0000000000000000e+00   1.0000000000000000e+00   1.0000000000000000e+00   1.0000000000000000e+00   3.0000000000000000e+00   3.0000000000000000e+00   3.0000000000000000e+00   4.0000000000000000e+00   1.0000000000000000e+00   2.0000000000000000e+00   3.0000000000000000e+00   3.0000000000000000e+00   1.0000000000000000e+00   1.0000000000000000e+00   3.0000000000000000e+00   1.0000000000000000e+00   1.0000000000000000e+00   1.0000000000000000e+00   1.0000000000000000e+00   2.0000000000000000e+00   2.0000000000000000e+00   4.0000000000000000e+00   4.0000000000000000e+00   1.0000000000000000e+00   1.0000000000000000e+00   2.0000000000000000e+00   2.0000000000000000e+00   2.0000000000000000e+00   2.0000000000000000e+00   3.0000000000000000e+00   3.0000000000000000e+00   4.0000000000000000e+00   4.0000000000000000e+00   3.0000000000000000e+00   3.0000000000000000e+00   2.0000000000000000e+00   2.0000000000000000e+00   4.0000000000000000e+00   1.0000000000000000e+00   4.0000000000000000e+00   4.0000000000000000e+00   2.0000000000000000e+00   1.0000000000000000e+00   1.0000000000000000e+00   1.0000000000000000e+00   1.0000000000000000e+00   3.0000000000000000e+00   3.00000000000000