<?xml version="1.0"?>
<VTKFile type="UnstructuredGrid"  version="0.1"  >
<UnstructuredGrid>
<Piece  NumberOfPoints="1410" NumberOfCells="2582">
<Points>
<DataArray  type="Float64"  NumberOfComponents="3"  format="ascii">0.75 0.25 0  0 0 0  2 -0.25 0  4 -0.25 0  4 0.25 0  2 0.25 0  1 1 0  4 0.75 0  3 0.75 0  0.5 4.25 0  0.5 2.25 0  1 2.25 0  1 4.25 0  0 1.25 0  0 4.25 0  0.7844645405527362 -0.09805806756909202 0  0.6519419324309079 1.034464540552736 0  2 0.875 0  0 2.75 0  3 0.25 0  0.5 3.25 0  0 2 0  3 -0.25 0  0 3.5 0  1 3.25 0  0.5 2.75 0  1 2.75 0  0.575970966215454 1.642232270276368 0  1 1.625 0  1.392232270276368 -0.174029033784546 0  1.375 0.25 0  0 0.625 0  1 3.75 0  0.5 3.75 0  2.5 -0.25 0  2.5 0.25 0  3.5 -0.25 0  3.5 0.25 0  3.5 0.75 0  2.5 0.8125 0  1.5 0.9375 0  1.6875 0.25 0  1.0625 0.25 0  0.875 0.625 0  0.700970966215454 0.6422322702763681 0  0 0.3125 0  0.375 0.125 0  0.3922322702763681 -0.04902903378454601 0  0.3464664973773267 0.7970996614213204 0  2.25 0.53125 0  0 3.125 0  0 2.375 0  0 1.625 0  0 3.875 0  0.537985483107727 1.946116135138184 0  1 1.9375 0  1.715073529411765 0.6268382352941176 0  3.25 0.25 0  3.25 -0.25 0  2.25 0.25 0  2.25 -0.25 0  2.75 0.25 0  2.75 -0.25 0  0.5 3.5 0  1 3.5 0  0.5 4 0  1 4 0  0.75 4.25 0  1 3 0  0.5 3 0  1 2.5 0  0.5 2.5 0  4 0 0  3.75 0.25 0  3.75 -0.25 0  1.25 0.96875 0  1.2451171875 0.59765625 0  0.293853011932077 1.4375 0  1 1.3125 0  0.6139564493231809 1.338348405414552 0  0.4116857159777551 0.4632129806755783 0  0.2928501320423879 1.115056149148878 0  0.284201940513483 1.760077167188763 0  0 0.9375 0  2.75 0.78125 0  1.088348405414552 -0.136043550676819 0  1.696116135138184 -0.212014516892273 0  2.591796875 0.53125 0  0.75 3.625 0  0.75 2.375 0  0.75 2.875 0  0.25 3.625 0  2.625 0 0  2.869887408088236 0.5025562959558824 0  3.125 0 0  3.150678214896726 0.5128391074483631 0  3.625 0 0  0.2785016588824192 2.067996682235162 0  0.21875 3.3125 0  0.21875 2.5625 0  0.25 2.875 0  2.125 0 0  0.25 4.25 0  3.625 0.5 0  1.84375 0.02182631533805432 0  0.7718263153380543 2.09375 0  1.986741274157778 0.6025731993874749 0  0.7939852294895662 1.78125 0  1.53125 0.04398522948956621 0  0.2625 3.8875 0  1.487674840542341 0.4901847565263522 0  1.75 0.90625 0  2.25 0.84375 0  3.25 0.75 0  0.75 4 0  0.75 3.354166666666667 0  0.71875 2.625 0  2.875 0.03125 0  2.375 0.03125 0  3.375 0.03125 0  4 0.5 0  3.75 0.75 0  0.2416684284745848 2.314407666779651 0  0.783116615667627 1.513809451332749 0  1.21875 0.06657492251677036 0  0.7135416666666666 3.114583333333333 0  3.388696598780641 0.5380982993903208 0  0.9375 0.8125 0  0.5625 0.1875 0  0.5883484054145521 -0.07354355067681902 0  1.834292433496893 0.4286869955403995 0  0 4.0625 0  1.508268243309771 0.7134447566805204 0  0.8397364341934612 1.15625 0  0.90625 0.08973643419346128 0  0.1762287579962529 0.46875 0  0.2947198275862069 3.098060344827586 0  1.050226080907534 0.4782380404537671 0  0.1875 0.0625 0  0 0.15625 0  0.196116135138184 -0.02451451689227301 0  0.2235726073555983 0.2667821779332051 0  0.725485483107727 0.446116135138184 0  0.8125 0.4375 0  1.21875 0.25 0  0 2.1875 0  0.6764564493231809 0.8383484054145521 0  0.4192012547977333 1.2758866510268 0  0.4944620909057268 0.6526950569812381 0  0.4992042149041173 0.9157821009870283 0  0 0.78125 0  0.194937005463869 0.6673564002429151 0  1.86255880264684 0.7451530740852181 0  2.357421875 0.6875 0  2.081166387241662 0.429588211340745 0  2.4208984375 0.4314236111111111 0  1.066781649073149 0.6699599996672357 0  0 2.5625 0  0 2.9375 0  0 3.3125 0  0 3.6875 0  0 1.8125 0  0 1.4375 0  3.8125 0.4375 0  3.8125 -0.0625 0  0.6875 3.8125 0  0.1700218302012254 0.859375 0  0.1690472196096196 1.911957914763972 0  1.21668432001436 0.78360936544389 0  1.313806319838196 0.4252282586228372 0  0.4784532254937536 1.100111179048576 0  0.3209821428571429 4.070982142857143 0  0.8203557082857347 1.336443668828191 0  0.8198947473657886 0.9558684175447372 0  0.7058684175447372 0.06989474736578868 0  2.10922165655377 0.733148252430158 0  3.859375 0.109375 0  0.859375 3.859375 0  1 4.125 0  0.875 4.25 0  0.5 4.125 0  0.625 4.25 0  3.859375 0.609375 0  1.655097146789825 0.4262580653019079 0  0.3899606708444321 1.601808367909216 0  0.188094281601128 1.595768799279547 0  0.1897730363172224 1.276600229362483 0  0.5949637077693175 1.49029033784546 0  0.1449053692805861 1.028784568397856 0  0.4239027738342909 0.2907916784971273 0  0.5807733567378052 0.3566502915297626 0  0.3236607142857143 2.709821428571428 0  0.3236607142857143 3.459821428571428 0  0.1400216896236526 3.03125 0  1.53125 0.25 0  0.1360119047619048 3.78125 0  0.1627182813733228 3.487063437253354 0  0.1627182813733228 2.737063437253354 0  2.720703257667097 0.418640211343992 0  0.3424301829456695 0.9599178797904677 0  1.375 0.953125 0  0.1593355272190568 4.110469297041258 0  3.281711152186982 0.4121684663171481 0  0.5 2.375 0  0.3410285945110505 2.448691175299727 0  1 3.125 0  0.8543087121212121 3.1875 0  0.5569782246615904 1.794174202707276 0  0.3652817565949378 1.915590656671834 0  0.6676801583862377 2.227139683227525 0  1.848058067569092 -0.2310072584461365 0  1.94122119384032 -0.1029663487768788 0  1.063574437333265 0.09265221344022306 0  1.370508994627147 -0.006847336588330449 0  1.691189739895822 0.0849409808883908 0  0.7102041511586388 1.932344835250979 0  0.90625 0.25 0  0 0.46875 0  1.84375 0.25 0  1 1.15625 0  1 1.46875 0  1 1.78125 0  1 2.09375 0  0 1.09375 0  1.24029033784546 -0.1550362922306825 0  0.5813838356180708 0.5174325975864416 0  0.5189927415538635 2.098058067569092 0  1.625 0.921875 0  3.434929322219013 0.3904102382632201 0  0.8461896960869875 3.030838823550802 0  1.653156168984253 0.7692030401370287 0  3.262867647058823 -0.08731617647058823 0  3.125 -0.25 0  0.8373161764705882 2.512867647058823 0  1 2.375 0  0.8692187841679423 2.66535148562213 0  2.762867647058823 -0.08731617647058823 0  2.625 -0.25 0  2.91535148562213 -0.1192187841679423 0  2.262867647058823 -0.08731617647058823 0  2.125 -0.25 0  2.41535148562213 -0.1192187841679423 0  3.41535148562213 -0.1192187841679423 0  1.544174202707276 -0.1930217753384095 0  0.6329491908770444 1.186406472983644 0  0.9364064729836441 -0.1170508091229555 0  1.125 0.984375 0  0.4504336144101285 1.42952773224714 0  1.644206836021766 -0.06435706276321013 0  2.740664765945612 0.6121009952805112 0  2.625 0.796875 0  0.124662354175549 2.09375 0  3.125 0.25 0  3.01361133488061 0.4168063371840494 0  2.875 0.25 0  1.373795061992237 0.7955646549967906 0  0.3420767846962419 0.6064437720353588 0  2.5625 0.3852064344618056 0  2.508037860576923 0.6595177283653846 0  0.1469265059660385 1.453790009288674 0  2.875 0.765625 0  0.1699209010469667 3.174524454330363 0  0.7999248195469919 0.7541917268176694 0  0.5041917268176693 0.04992481954699185 0  0.8544829369904072 1.969727084723336 0  0.6614583333333334 3.489583333333333 0  0.5 3.625 0  1 3.375 0  0.868923611111111 3.4375 0  0.1332176882968829 1.738129301927728 0  0.5 3.375 0  0.109375 2.46875 0  0.3498212186520376 3.238257983934169 0  1.39620661760173 0.6112015078027588 0  0.3515544365587217 2.204874914095091 0  0.1274818974577599 3.960380153387042 0  1.140625 0.3686503615930594 0  1.986051070991002 0.03251070901556422 0  0.8389661381605011 2.240432276321002 0  0.5 3.125 0  2.28246200534612 0.390625 0  3.007334260338529 0.5882132356141939 0  3.125 0.75 0  1.078366076880243 0.8103651640050832 0  3.0625 0.125 0  0.625 2.4375 0  0.8541666666666666 4.104166666666667 0  0.6875 4.125 0  3.6875 0.375 0  0.3591887728535061 2.969122454292988 0  3.6875 -0.125 0  3.520548512937292 0.6040242564686458 0  3.239583333333333 0.09895833333333334 0  3.510416666666667 0.09895833333333333 0  3.625 0.25 0  2.5625 -0.125 0  2.510416666666667 0.09895833333333333 0  2.625 0.25 0  2.239583333333333 0.09895833333333334 0  2.125 0.25 0  2.739583333333333 0.09895833333333334 0  3.0625 -0.125 0  0.6510416666666666 2.760416666666667 0  0.5 2.875 0  0.3426829268292683 3.752134146341464 0  0.5 3.875 0  0.8714095068886598 2.80531901377732 0  0.8825550258945386 3.577610051789077 0  0.8620783455301706 3.717761444253076 0  0.6472120098039215 2.981924019607843 0  3.716032608695652 0.1107336956521739 0  3.716032608695652 0.6107336956521739 0  1.786575790561101 -0.1056013740095049 0  0.4252485344603035 1.739858069965885 0  0.5 2.625 0  0.1308946075780465 2.231795972322868 0  1.850416351396303 0.6092079899891796 0  2.125915028793208 0.5947584569158341 0  3.551580274702736 -0.1148348626486319 0  0.3128577349738648 0.3695669640201116 0  0.6478934961315281 3.247138942617666 0  0.984375 0.3602477313637387 0  0.7242566657366407 1.6501426033772 0  0.8612952327118942 1.628434546378823 0  1.606452791588792 0.5500604232027796 0  1.453125 0.3598714462304637 0  0.625 3.6875 0  0.625 3.9375 0  4 -0.125 0  3.875 -0.25 0  4 0.375 0  3.875 0.25 0  3.152777626956278 0.3799601266325013 0  2.379716795646156 0.5571209725245179 0  0.1174878138409479 1.16171812192113 0  0.5468843282025183 0.7833364103485649 0  2.88346274652106 0.6338764991013285 0  0.3773660714285715 3.951949404761905 0  0.3495104379338289 2.580398005237598 0  1.921875 0.1458186769779903 0  2.375 0.25 0  1.453125 0.1469926147447831 0  1.481445595119689 -0.07758653553853971 0  0.1144799602653395 3.614169841061358 0  0.1144799602653395 2.864169841061358 0  2.080969168287872 0.125 0  3.261146087782943 0.6059538971878488 0  3.375 0.75 0  3.625 0.75 0  0.375 4.25 0  3.56001833055729 0.3630975041640645 0  0.6446247714683205 2.049847905827801 0  2.843059981786046 0.3756833222572615 0  2.227226163353452 0.6771809110312732 0  3 0.015625 0  2.9375 0.140625 0  2.125 0.859375 0  2.375 0.828125 0  1.875 0.890625 0  3.375 0.25 0  1.200132154762156 0.4798401850990263 0  0.8681224940692268 3.312119642433615 0  1 3.625 0  0.375 2.831729609073359 0  3.625 -0.25 0  0.375 3.581729609073359 0  3.375 -0.25 0  2.375 -0.25 0  2.074300107642695 -0.125 0  2.875 -0.25 0  1 2.625 0  0.125 4.25 0  1 3.875 0  4 0.125 0  4 0.625 0  3.875 0.75 0  0.875 2.392417279411764 0
[...]
<CellData  Scalars="f_81"> 
<DataArray  type="Float64"  Name="f_81"  format="ascii">1.0000000000000000e+00   1.0000000000000000e+00   4.0000000000000000e+00   3.0000000000000000e+00   1.0000000000000000e+00   1.0000000000000000e+00   1.0000000000000000e+00   4.0000000000000000e+00   2.0000000000000000e+00   4.0000000000000000e+00   2.0000000000000000e+00   2.0000000000000000e+00   1.0000000000000000e+00   1.0000000000000000e+00   3.0000000000000000e+00   1.0000000000000000e+00   3.0000000000000000e+00   3.0000000000000000e+00   1.0000000000000000e+00   1.0000000000000000e+00   1.0000000000000000e+00   2.0000000000000000e+00   4.0000000000000000e+00   2.0000000000000000e+00   1.0000000000000000e+00   2.0000000000000000e+00   2.0000000000000000e+00   1.0000000000000000e+00   4.0000000000000000e+00   4.0000000000000000e+00   3.0000000000000000e+00   4.0000000000000000e+00   3.0000000000000000e+00   3.0000000000000000e+00   3.0000000000000000e+00   3.0000000000000000e+00   3.0000000000000000e+00   3.0000000000000000e+00   2.0000000000000000e+00   3.0000000000000000e+00   1.0000000000000000e+00   4.0000000000000000e+00   1.0000000000000000e+00   1.0000000000000000e+00   1.0000000000000000e+00   4.0000000000000000e+00   1.0000000000000000e+00   1.0000000000000000e+00   4.0000000000000000e+00   3.0000000000000000e+00   1.0000000000000000e+00   1.0000000000000000e+00   2.0000000000000000e+00   2.0000000000000000e+00   2.0000000000000000e+00   2.0000000000000000e+00   2.0000000000000000e+00   3.0000000000000000e+00   4.0000000000000000e+00   4.0000000000000000e+00   4.0000000000000000e+00   4.0000000000000000e+00   4.0000000000000000e+00   4.0000000000000000e+00   1.0000000000000000e+00   2.0000000000000000e+00   1.0000000000000000e+00   1.0000000000000000e+00   2.0000000000000000e+00   2.0000000000000000e+00   2.0000000000000000e+00   2.0000000000000000e+00   2.0000000000000000e+00   2.0000000000000000e+00   4.0000000000000000e+00   4.0000000000000000e+00   4.0000000000000000e+00   4.0000000000000000e+00   4.0000000000000000e+00   3.0000000000000000e+00   3.0000000000000000e+00   4.0000000000000000e+00   3.0000000000000000e+00   1.0000000000000000e+00   1.0000000000000000e+00   1.0000000000000000e+00   1.0000000000000000e+00   2.0000000000000000e+00   1.0000000000000000e+00   1.0000000000000000e+00   1.0000000000000000e+00   1.0000000000000000e+00   1.0000000000000000e+00   3.0000000000000000e+00   3.0000000000000000e+00   3.0000000000000000e+00   4.0000000000000000e+00   4.0000000000000000e+00   4.0000000000000000e+00   3.0000000000000000e+00   3.0000000000000000e+00   2.0000000000000000e+00   2.0000000000000000e+00   2.0000000000000000e+00   2.0000000000000000e+00   1.0000000000000000e+00   4.0000000000000000e+00   4.0000000000000000e+00   3.0000000000000000e+00   3.0000000000000000e+00   4.0000000000000000e+00   4.0000000000000000e+00   4.0000000000000000e+00   4.0000000000000000e+00   1.0000000000000000e+00   1.0000000000000000e+00   1.0000000000000000e+00   1.0000000000000000e+00   1.0000000000000000e+00   4.0000000000000000e+00   4.0000000000000000e+00   1.0000000000000000e+00   1.0000000000000000e+00   3.0000000000000000e+00   3.0000000000000000e+00   4.0000000000000000e+00   4.0000000000000000e+00   2.0000000000000000e+00   2.0000000000000000e+00   3.0000000000000000e+00   3.0000000000000000e+00   2.0000000000000000e+00   4.0000000000000000e+00   4.0000000000000000e+00   1.0000000000000000e+00   3.0000000000000000e+00   3.0000000000000000e+00   3.0000000000000000e+00   3.0000000000000000e+00   3.0000000000000000e+00   2.0000000000000000e+00   2.0000000000000000e+00   2.0000000000000000e+00   2.0000000000000000e+00   2.0000000000000000e+00   4.0000000000000000e+00   4.0000000000000000e+00   4.0000000000000000e+00   3.0000000000000000e+00   4.0000000000000000e+00   3.0000000000000000e+00   3.0000000000000000e+00   1.0000000000000000e+00   2.0000000000000000e+00   2.0000000000000000e+00   4.0000000000000000e+00   2.0000000000000000e+00   2.0000000000000000e+00   3.0000000000000000e+00   3.0000000000000000e+00   3.0000000000000000e+00   2.0000000000000000e+00   4.0000000000000000e+00   4.0000000000000000e+00   3.0000000000000000e+00   3.0000000000000000e+00   1.0000000000000000e+00   3.0000000000000000e+00   2.0000000000000000e+00   2.0000000000000000e+00   4.0000000000000000e+00   1.0000000000000000e+00   1.0000000000000000e+00   1.0000000000000000e+00   2.0000000000000000e+00   4.0000000000000000e+00   1.0000000000000000e+00   1.0000000000000000e+00   4.0000000000000000e+00   1.0000000000000000e+00   1.0000000000000000e+00   1.0000000000000000e+00   1.0000000000000000e+00   3.0000000000000000e+00   3.0000000000000000e+00   3.0000000000000000e+00   3.0000000000000000e+00   1.0000000000000000e+00   1.0000000000000000e+00   2.0000000000000000e+00   2.0000000000000000e+00   2.0000000000000000e+00   1.0000000000000000e+00   1.0000000000000000e+00   1.0000000000000000e+00   1.0000000000000000e+00   1.0000000000000000e+00   1.0000000000000000e+00   1.0000000000000000e+00   1.0000000000000000e+00   1.0000000000000000e+00   3.0000000000000000e+00   3.0000000000000000e+00   3.0000000000000000e+00   3.0000000000000000e+00   4.0000000000000000e+00   3.0000000000000000e+00   3.0000000000000000e+00   1.0000000000000000e+00   1.0000000000000000e+00   1.0000000000000000e+00   1.0000000000000000e+00   1.0000000000000000e+00   1.0000000000000000e+00   1.0000000000000000e+00   3.0000000000000000e+00   3.0000000000000000e+00   2.0000000000000000e+00   2.0000000000000000e+00   1.0000000000000000e+00   1.0000000000000000e+00   1.0000000000000000e+00   3.0000000000000000e+00   3.0000000000000000e+00   3.0000000000000000e+00   2.0000000000000000e+00   1.0000000000000000e+00   1.0000000000000000e+00   2.0000000000000000e+00   2.0000000000000000e+00   2.0000000000000000e+00   4.0000000000000000e+00   4.0000000000000000e+00   3.0000000000000000e+00   3.0000000000000000e+00   4.0000000000000000e+00   2.0000000000000000e+00   2.0000000000000000e+00   2.0000000000000000e+00   2.0000000000000000e+00   2.0000000000000000e+00   2.0000000000000000e+00   2.0000000000000000e+00   4.0000000000000000e+00   4.0000000000000000e+00   1.0000000000000000e+00   2.0000000000000000e+00   1.0000000000000000e+00   1.0000000000000000e+00   2.0000000000000000e+00   1.0000000000000000e+00   1.0000000000000000e+00   1.0000000000000000e+00   1.0000000000000000e+00   1.0000000000000000e+00   2.0000000000000000e+00   1.0000000000000000e+00   2.0000000000000000e+00   2.0000000000000000e+00   1.0000000000000000e+00   1.0000000000000000e+00   1.0000000000000000e+00   3.0000000000000000e+00   3.0000000000000000e+00   1.0000000000000000e+00   1.0000000000000000e+00   1.0000000000000000e+00   1.0000000000000000e+00   3.0000000000000000e+00   3.0000000000000000e+00   1.0000000000000000e+00   1.0000000000000000e+00   3.0000000000000000e+00   3.0000000000000000e+00   3.0000000000000000e+00   1.0000000000000000e+00   1.0000000000000000e+00   1.0000000000000000e+00   1.0000000000000000e+00   2.0000000000000000e+00   2.0000000000000000e+00   2.0000000000000000e+00   2.0000000000000000e+00   1.0000000000000000e+00   1.0000000000000000e+00   1.0000000000000000e+00   1.0000000000000000e+00   2.0000000000000000e+00   2.0000000000000000e+00   4.0000000000000000e+00   4.0000000000000000e+00   3.0000000000000000e+00   4.0000000000000000e+00   4.0000000000000000e+00   4.0000000000000000e+00   4.0000000000000000e+00   2.0000000000000000e+00   2.0000000000000000e+00   3.0000000000000000e+00   4.0000000000000000e+00   1.0000000000000000e+00   3.0000000000000000e+00   3.0000000000000000e+00   2.0000000000000000e+00   2.0000000000000000e+00   2.0000000000000000e+00   2.0000000000000000e+00   2.0000000000000000e+00   2.0000000000000000e+00   1.0000000000000000e+00   4.0000000000000000e+00   1.0000000000000000e+00   1.0000000000000000e+00   2.0000000000000000e+00   2.0000000000000000e+00   3.0000000000000000e+00   3.0000000000000000e+00   3.0000000000000000e+00   3.0000000000000000e+00   2.0000000000000000e+00   3.0000000000000000e+00   3.0000000000000000e+00   4.0000000000000000e+00   4.0000000000000000e+00   4.0000000000000000e+00   2.0000000000000000e+00   2.0000000000000000e+00   2.0000000000000000e+00   2.0000000000000000e+00   4.0000000000000000e+00   4.0000000000000000e+00   4.0000000000000000e+00   4.0000000000000000e+00   4.0000000000000000e+00   4.0000000000000000e+00   4.0000000000000000e+00   4.0000000000000000e+00   4.0000000000000000e+00   4.0000000000000000e+00   4.0000000000000000e+00   4.0000000000000000e+00   1.0000000000000000e+00   1.0000000000000000e+00   4.0000000000000000e+00   3.0000000000000000e+00   3.0000000000000000e+00   1.0000000000000000e+00   1.0000000000000000e+00   4.0000000000000000e+00   4.0000000000000000e+00   3.0000000000000000e+00   3.0000000000000000e+00   3.0000000000000000e+00   1.0000000000000000e+00   1.0000000000000000e+00   3.0000000000000000e+00   3.0000000000000000e+00   3.0000000000000000e+00   4.0000000000000000e+00   3.0000000000000000e+00   3.0000000000000000e+00   3.0000000000000000e+00   3.0000000000000000e+00   1.0000000000000000e+00   1.0000000000000000e+00   3.0000000000000000e+00   3.0000000000000000e+00   3.0000000000000000e+00   3.0000000000000000e+00   1.0000000000000000e+00   1.0000000000000000e+00   2.0000000000000000e+00   3.0000000000000000e+00   1.0000000000000000e+00   4.0000000000000000e+00   2.0000000000000000e+00   2.0000000000000000e+00   2.0000000000000000e+00   1.0000000000000000e+00   1.0000000000000000e+00   1.0000000000000000e+00   2.0000000000000000e+00   2.0000000000000000e+00   2.0000000000000000e+00   2.0000000000000000e+00   1.0000000000000000e+00   1.0000000000000000e+00   2.0000000000000000e+00   2.0000000000000000e+00   1.0000000000000000e+00   1.0000000000000000e+00   1.0000000000000000e+00   1.0000000000000000e+00   3.0000000000000000e+00   3.0000000000000000e+00   1.0000000000000000e+00   1.0000000000000000e+00   1.0000000000000000e+00   1.0000000000000000e+00   3.0000000000000000e+00   3.0000000000000000e+00   4.0000000000000000e+00   4.0000000000000000e+00   2.0000000000000000e+00   1.0000000000000000e+00   1.0000000000000000e+00   3.0000000000000000e+00   3.0000000000000000e+00   3.0000000000000000e+00   3.0000000000000000e+00   3.0000000000000000e+00   3.0000000000000000e+00   3.0000000000000000e+00   4.0000000000000000e+00   4.0000000000000000e+00   2.0000000000000000e+00   2.0000000000000000e+00   2.0000000000000000e+00   2.0000000000000000e+00   2.0000000000000000e+00   2.0000000000000000e+00   3.0000000000000000e+00   3.0000000000000000e+00   1.0000000000000000e+00   1.0000000000000000e+00   4.0000000000000000e+00   4.0000000000000000e+00   4.0000000000000000e+00   3.0000000000000000e+00   3.0000000000000000e+00   3.0000000000000000e+00   4.0000000000000000e+00   4.0000000000000000e+00   4.0000000000000000e+00   3.0000000000000000e+00   4.0000000000000000e+00   4.0000000000000000e+00   3.0000000000000000e+00   4.0000000000000000e+00   4.0000000000000000e+00   4.0000000000000000e+00   4.0000000000000000e+00   4.0000000000000000e+00   4.0000000000000000e+00   4.0000000000000000e+00   2.0000000000000000e+00   1.0000000000000000e+00   2.0000000000000000e+00   2.0000000000000000e+00   1.0000000000000000e+00   1.0000000000000000e+00   1.0000000000000000e+00   1.0000000000000000e+00   2.0000000000000000e+00   2.0000000000000000e+00   2.0000000000000000e+00   2.0000000000000000e+00   2.0000000000000000e+00   2.0000000000000000e+00   4.0000000000000000e+00   4.0000000000000000e+00   3.0000000000000000e+00   4.0000000000000000e+00   4.0000000000000000e+00   1.0000000000000000e+00   1.0000000000000000e+00   1.0000000000000000e+00   1.0000000000000000e+00   1.0000000000000000e+00   3.0000000000000000e+00   3.0000000000000000e+00   3.0000000000000000e+00   3.0000000000000000e+00   4.0000000000000000e+00   4.0000000000000000e+00   1.0000000000000000e+00   1.0000000000000000e+00   2.0000000000000000e+00   2.0000000000000000e+00   3.0000000000000000e+00   3.0000000000000000e+00   2.0000000000000000e+00   2.0000000000000000e+00   2.0000000000000000e+00   3.0000000000000000e+00   3.0000000000000000e+00   3.0000000000000000e+00   3.0000000000000000e+00   2.0000000000000000e+00   2.0000000000000000e+00   2.0000000000000000e+00   2.0000000000000000e+00   4.0000000000000000e+00   4.0000000000000000e+00   3.0000000000000000e+00   3.0000000000000000e+00   3.0000000000000000e+00   3.0000000000000000e+00   3.0000000000000000e+00   3.0000000000000000e+00   3.0000000000000000e+00   1.0000000000000000e+00   1.0000000000000000e+00   1.0000000000000000e+00   1.0000000000000000e+00   3.0000000000000000e+00   3.0000000000000000e+00   1.0000000000000000e+00   1.0000000000000000e+00   1.0000000000000000e+00   1.0000000000000000e+00   4.0000000000000000e+00   4.0000000000000000e+00   3.0000000000000000e+00   3.0000000000000000e+00   4.0000000000000000e+00   3.0000000000000000e+00   4.0000000000000000e+00   4.0000000000000000e+00   1.0000000000000000e+00   1.0000000000000000e+00   1.0000000000000000e+00   1.0000000000000000e+00   4.0000000000000000e+00   4.0000000000000000e+00   3.0000000000000000e+00   3.0000000000000000e+00   3.0000000000000000e+00   1.0000000000000000e+00   3.0000000000000000e+00   3.0000000000000000e+00   2.0000000000000000e+00   2.0000000000000000e+00   3.0000000000000000e+00   3.0000000000000000e+00   3.0000000000000000e+00   4.0000000000000000e+00   4.0000000000000000e+00   4.0000000000000000e+00   4.0000000000000000e+00   3.0000000000000000e+00   3.0000000000000000e+00   3.0000000000000000e+00   4.0000000000000000e+00   4.0000000000000000e+00   3.0000000000000000e+00   3.0000000000000000e+00   2.0000000000000000e+00   2.0000000000000000e+00   2.0000000000000000e+00   1.0000000000000000e+00   1.0000000000000000e+00   4.0000000000000000e+00   1.0000000000000000e+00   1.0000000000000000e+00   4.0000000000000000e+00   4.0000000000000000e+00   4.0000000000000000e+00   4.0000000000000000e+00   4.0000000000000000e+00   4.0000000000000000e+00   4.0000000000000000e+00   4.0000000000000000e+00   2.0000000000000000e+00   1.0000000000000000e+00   2.0000000000000000e+00   3.0000000000000000e+00   4.0000000000000000e+00   3.0000000000000000e+00   3.0000000000000000e+00   2.0000000000000000e+00   2.0000000000000000e+00   2.0000000000000000e+00   2.0000000000000000e+00   1.0000000000000000e+00   4.0000000000000000e+00   1.0000000000000000e+00   1.0000000000000000e+00   4.0000000000000000e+00   4.0000000000000000e+00   3.0000000000000000e+00   3.0000000000000000e+00   4.0000000000000000e+00   3.0000000000000000e+00   4.0000000000000000e+00   4.0000000000000000e+00   2.0000000000000000e+00   1.0000000000000000e+00   1.0000000000000000e+00   1.0000000000000000e+00   2.0000000000000000e+00   1.0000000000000000e+00   2.0000000000000000e+00   1.0000000000000000e+00   1.0000000000000000e+00   3.0000000000000000e+00   3.0000000000000000e+00   4.0000000000000000e+00   4.0000000000000000e+00   2.0000000000000000e+00   2.0000000000000000e+00   1.0000000000000000e+00   1.0000000000000000e+00   1.0000000000000000e+00   1.0000000000000000e+00   3.0000000000000000e+00   4.0000000000000000e+00   3.0000000000000000e+00   3.0000000000000000e+00   2.0000000000000000e+00   4.0000000000000000e+00   4.0000000000000000e+00   2.0000000000000000e+00   2.0000000000000000e+00   1.0000000000000000e+00   1.0000000000000000e+00   3.0000000000000000e+00   3.0000000000000000e+00   2.0000000000000000e+00   2.0000000000000000e+00   3.0000000000000000e+00   3.0000000000000000e+00   1.0000000000000000e+00   1.0000000000000000e+00   1.0000000000000000e+00   1.0000000000000000e+00   1.0000000000000000e+00   1.0000000000000000e+00   1.0000000000000000e+00   3.0000000000000000e+00   2.0000000000000000e+00   2.0000000000000000e+00   2.0000000000000000e+00   4.0000000000000000e+00   4.0000000000000000e+00   4.0000000000000000e+00   1.0000000000000000e+00   1.0000000000000000e+00   3.0000000000000000e+00   3.0000000000000000e+00   1.0000000000000000e+00   1.0000000000000000e+00   3.0000000000000000e+00   3.0000000000000000e+00   3.0000000000000000e+00   3.0000000000000000e+00   3.0000000000000000e+00   3.0000000000000000e+00   3.0000000000000000e+00   3.0000000000000000e+00   4.0000000000000000e+00   4.0000000000000000e+00   1.0000000000000000e+00   1.0000000000000000e+00   4.0000000000000000e+00   4.0000000000000000e+00   4.0000000000000000e+00   4.0000000000000000e+00   3.0000000000000000e+00   3.0000000000000000e+00   2.0000000000000000e+00   2.0000000000000000e+00   1.0000000000000000e+00   1.0000000000000000e+00   3.0000000000000000e+00   3.0000000000000000e+00   2.0000000000000000e+00   2.0000000000000000e+00   1.0000000000000000e+00   1.0000000000000000e+00   1.0000000000000000e+00   1.0000000000000000e+00   1.0000000000000000e+00   2.0000000000000000e+00   2.0000000000000000e+00   2.0000000000000000e+00   2.0000000000000000e+00   2.0000000000000000e+00   2.0000000000000000e+00   3.0000000000000000e+00   3.0000000000000000e+00   2.0000000000000000e+00   2.0000000000000000e+00   2.0000000000000000e+00   4.0000000000000000e+00   4.0000000000000000e+00   2.0000000000000000e+00   2.0000000000000000e+00   4.0000000000000000e+00   4.0000000000000000e+00   2.0000000000000000e+00   2.0000000000000000e+00   2.0000000000000000e+00   2.0000000000000000e+00   1.0000000000000000e+00   1.0000000000000000e+00   1.0000000000000000e+00   1.0000000000000000e+00   4.0000000000000000e+00   4.0000000000000000e+00   1.0000000000000000e+00   1.0000000000000000e+00   2.0000000000000000e+00   2.0000000000000000e+00   2.0000000000000000e+00   2.0000000000000000e+00   2.0000000000000000e+00   2.0000000000000000e+00   4.0000000000000000e+00   4.0000000000000000e+00   3.0000000000000000e+00   3.0000000000000000e+00   3.0000000000000000e+00   1.0000000000000000e+00   4.0000000000000000e+00   4.0000000000000000e+00   4.0000000000000000e+00   4.0000000000000000e+00   1.0000000000000000e+00   3.0000000000000000e+00   3.0000000000000000e+00   3.0000000000000000e+00   3.0000000000000000e+00   2.0000000000000000e+00   2.0000000000000000e+00   2.0000000000000000e+00   2.0000000000000000e+00   3.0000000000000000e+00   3.0000000000000000e+00   4.0000000000000000e+00   4.0000000000000000e+00   3.0000000000000000e+00   3.0000000000000000e+00   3.0000000000000000e+00   3.0000000000000000e+00   1.0000000000000000e+00   1.0000000000000000e+00   3.0000000000000000e+00   3.0000000000000000e+00   3.0000000000000000e+00   2.0000000000000000e+00   2.0000000000000000e+00   1.0000000000000000e+00   1.0000000000000000e+00   3.0000000000000000e+00   2.0000000000000000e+00   3.0000000000000000e+00   3.0000000000000000e+00   1.0000000000000000e+00   1.0000000000000000e+00   1.0000000000000000e+00   1.0000000000000000e+00   1.0000000000000000e+00   1.0000000000000000e+00   1.0000000000000000e+00   1.0000000000000000e+00   4.0000000000000000e+00   4.0000000000000000e+00   1.0000000000000000e+00   1.0000000000000000e+00   1.0000000000000000e+00   1.0000000000000000e+00   1.0000000000000000e+00   1.0000000000000000e+00   1.0000000000000000e+00   1.0000000000000000e+00   1.0000000000000000e+00   1.0000000000000000e+00   1.0000000000000000e+00   1.0000000000000000e+00   1.0000000000000000e+00   1.0000000000000000e+00   2.0000000000000000e+00   2.0000000000000000e+00   2.0000000000000000e+00   2.0000000000000000e+00   4.0000000000000000e+00   4.0000000000000000e+00   2.0000000000000000e+00   2.0000000000000000e+00   3.0000000000000000e+00   2.0000000000000000e+00   2.0000000000000000e+00   1.0000000000000000e+00   1.0000000000000000e+00   1.0000000000000000e+00   1.0000000000000000e+00   1.0000000000000000e+00   1.0000000000000000e+00   3.0000000000000000e+00   3.0000000000000000e+00   3.0000000000000000e+00   3.0000000000000000e+00   4.0000000000000000e+00   4.0000000000000000e+00   2.0000000000000000e+00   2.00000000000000