<?xml version="1.0"?>
<VTKFile type="UnstructuredGrid"  version="0.1"  >
<UnstructuredGrid>
<Piece  NumberOfPoints="818" NumberOfCells="1467">
<Points>
<DataArray  type="Float64"  NumberOfComponents="3"  format="ascii">0.75 0.25 0  0 0 0  2 -0.25 0  4 -0.25 0  4.5 0.25 0  2 0.25 0  1 1 0  5 0.75 0  3 0.75 0  0.5 4.25 0  0.5 2.25 0  1 2.25 0  1 4.75 0  0 1.25 0  0 3.75 0  0.7844645405527362 -0.09805806756909202 0  0.5 3.542893218813453 0  0.6519419324309079 1.034464540552736 0  4.292893218813452 0.75 0  2 0.875 0  1 3.335786437626905 0  0 2.5 0  3.085786437626905 0.25 0  1 4.042893218813452 0  0.5 2.896446609406726 0  0 1.875 0  3 -0.25 0  3.792893218813453 0.25 0  0 3.125 0  1 2.792893218813453 0  3.646446609406726 0.75 0  0.575970966215454 1.642232270276368 0  1 1.625 0  1.392232270276368 -0.174029033784546 0  1.375 0.25 0  0 0.625 0  2.542893218813453 0.25 0  2.5 0.8125 0  1.5 0.9375 0  3.5 -0.25 0  2.5 -0.25 0  1.6875 0.25 0  1.0625 0.25 0  0.875 0.625 0  0.700970966215454 0.6422322702763681 0  0 0.3125 0  0.375 0.125 0  0.3922322702763681 -0.04902903378454601 0  0.3464664973773267 0.7970996614213204 0  2.271446609406726 0.25 0  3.439339828220179 0.25 0  3.323223304703363 0.75 0  0.537985483107727 1.946116135138184 0  1 1.9375 0  1 2.521446609406726 0  0.5 2.573223304703363 0  1.715073529411765 0.6268382352941176 0  1 4.396446609406726 0  0.7499999999999999 4.5 0  4.646446609406726 0.75 0  4.75 0.4999999999999999 0  4.146446609406726 0.25 0  4.25 -1.110223024625157e-16 0  0.5 3.896446609406726 0  0.2499999999999999 4 0  3.969669914110089 0.75 0  1 3.689339828220179 0  1.25 0.96875 0  1.2451171875 0.59765625 0  0.6139564493231809 1.338348405414552 0  0 1.5625 0  0.3279717989988726 1.148284298998873 0  2.25 0.84375 0  2.814339828220179 0.25 0  0.3075203580578579 0.4587907161157158 0  1 3.064339828220179 0  0.5 3.21966991411009 0  0 3.4375 0  3.25 -0.25 0  2.75 0.78125 0  2.087890625 0.5625 0  0 2.8125 0  0 0.9375 0  0 2.1875 0  1 1.3125 0  0.2888086455140603 1.760653005313835 0  0.2874220762955581 1.453127664757601 0  1.088348405414552 -0.136043550676819 0  1.696116135138184 -0.212014516892273 0  2.40716991411009 0.522535875028201 0  2.75 -0.25 0  0.2635590489692244 2.054697698336752 0  3.616116523516816 0.01776695296636871 0  0.7359453916154427 2.411611652351682 0  2.25 -0.25 0  0.234375 2.34375 0  2.135723304703363 0.00536165235168154 0  0.2324793696318806 2.65625 0  3.262563132923542 0.4724296564403574 0  1.84375 0.02182631533805432 0  0.7718263153380543 2.09375 0  0.2716371298570349 3.058058261758408 0  0.7494344750330941 2.684345477099655 0  0.2505920269815994 3.329943876276834 0  4.469669914110089 0.5303300858899106 0  0.7803300858899107 4.219669914110089 0  0.7259514805718603 3.381281566461771 0  0.7803300858899106 3.866116523516816 0  3.96966991411009 0.0303300858899106 0  0.2803300858899105 3.719669914110089 0  2.678616523516816 0.01332521472477666 0  2.407090198419469 0.01477782405884989 0  3.616116523516816 0.4696699141100894 0  2.689855585708455 0.5044447872345932 0  3.349460913857858 -0.001814254138490734 0  2.948991814474132 0.01552932241149335 0  4.13128156646177 0.5258883476483185 0  0.7239211319013729 3.058058261758408 0  3.872415489507741 0.5095411611094928 0  0.7939852294895662 1.78125 0  1.53125 0.04398522948956621 0  1.487674840542341 0.4901847565263522 0  3.00724405538993 0.4938835705310333 0  1.75 0.90625 0  3.75 -0.25 0  0.5625 0.1875 0  0.7303932188134525 3.626250389131052 0  0.8165749225167703 1.46875 0  1.21875 0.06657492251677036 0  0.725485483107727 0.446116135138184 0  0.8125 0.4375 0  1.877065693275382 0.453184892906924 0  0.9375 0.8125 0  1.508268243309771 0.7134447566805204 0  0.7990602752468996 1.207170358529876 0  0.90625 0.08973643419346128 0  0.5185463530894219 0.519838968760755 0  0.5 4.073223304703363 0  0.3749999999999999 4.125 0  4.323223304703363 0.25 0  4.375 0.1249999999999999 0  1.050226080907534 0.4782380404537671 0  0.1875 0.0625 0  0 0.15625 0  0.196116135138184 -0.02451451689227301 0  0.2231599859012479 0.2680200422962565 0  3.440182663124321 0.5790262201770005 0  0.2020362539169701 2.862028966727587 0  3.125 -0.08832350104942926 0  0.1883754287462272 3.530688916702622 0  1.21875 0.25 0  1 3.512563132923542 0  0.6764564493231809 0.8383484054145521 0  0.5883484054145521 -0.07354355067681902 0  0.8398029595895056 3.218948371592812 0  0.2132971904217038 0.9661657857638748 0  0 0.78125 0  0.5209698255699238 0.7133734885591143 0  0.4503536514315889 0.9786500668966831 0  0.2076915826743173 0.6416792219432185 0  2.856519513032049 0.6177811042563924 0  1 2.928616523516816 0  3.161611652351682 0.75 0  1.916720080301858 0.6829679034442724 0  1.672266716801611 0.4405425357863958 0  3.96966991411009 0.25 0  1.066781649073149 0.6699599996672357 0  0.6907632762372584 2.868067288178302 0  0.4555265649540495 0.3424282174643063 0  1.21668432001436 0.78360936544389 0  1.313806319838196 0.4252282586228372 0  3.185142251120063 0.09008160278313711 0  2.135723304703363 0.25 0  2.234505352633406 0.4384599550512403 0  2.608765720018767 0.6670007601501338 0  0.8198947473657886 0.9558684175447372 0  0.7058684175447372 0.06989474736578863 0  0.5 2.734834957055044 0  2.260992539886939 0.6500700008811391 0  3.795869517981131 -0.0597108954054542 0  0.5 3.71966991411009 0  0 1.09375 0  3.262563132923542 0.25 0  1 4.219669914110089 0  0.875 4.625 0  1 4.573223304703363 0  4.875 0.625 0  4.823223304703363 0.75 0  4.469669914110089 0.75 0  4.125 -0.1250000000000001 0  0.625 4.375 0  4.625 0.3749999999999999 0  0.1249999999999999 3.875 0  3.616116523516816 0.25 0  1 3.866116523516816 0  0.694262136722149 4.042893218813452 0  0.1906560852039034 1.285137415707464 0  0.5 2.411611652351682 0  0.3308137920995923 2.500590748832688 0  0.1815952455106 1.607370612572814 0  0 0.46875 0  0.5949637077693175 1.49029033784546 0  0.4226601106011968 1.315998178816079 0  0.6329491908770444 1.186406472983644 0  0.4320842051675812 1.547088412582813 0  2.125 0.859375 0  0.6699048204885517 3.220882407922834 0  4.301636283129006 0.4396946921655893 0  0 1.40625 0  0.3766167534770592 0.6151964092339715 0  2.875 -0.25 0  0 2.96875 0  0.1653985249053466 2.504983136602755 0  3.727176504358874 0.5994596821586893 0  3.459846813657405 0.4144616588158379 0  2.814656367504452 -0.09011091765882974 0  0.5 3.381281566461771 0  0.3468121364200137 3.469779092167198 0  2.067861652351682 0.3995235294167145 0  0.181852409119842 0.8044173030485622 0  0.342131129965669 2.77761334848157 0  0.1591260878204748 3.1861067260949 0  0 1.71875 0  0.5 3.058058261758408 0  3.484834957055044 0.75 0  4.13128156646177 0.75 0  3.808058261758408 0.75 0  1.375 0.953125 0  0.6773986202352672 2.244046778748645 0  0.5189927415538635 2.098058067569092 0  0.8388169200230938 2.240650181295278 0  1 2.385723304703363 0  0.1621991464553732 1.122828132180541 0  4.058058261758408 0.3835024355825669 0  0.1765919183961606 1.899123400090954 0  0 2.03125 0  0.84162199491885 2.81501455161969 0  2.542315635874096 -0.08646175370514203 0  2.84699940687038 0.4525707381170703 0  0.6322427069825276 3.808058261758408 0  1.848058067569092 -0.2310072584461365 0  1.94122119384032 -0.1029663487768788 0  1.063574437333265 0.09265221344022306 0  0.7431526634116695 1.620508994627148 0  1.370508994627147 -0.006847336588330449 0  1.691189739895822 0.0849409808883908 0  0.7102041511586388 1.932344835250979 0  0.5569782246615904 1.794174202707276 0  2.950063132923542 0.25 0  0.90625 0.25 0  1.84375 0.25 0  1.53125 0.25 0  0 2.65625 0  0 2.34375 0  1 1.15625 0  1 1.46875 0  1 1.78125 0  1 2.09375 0  0 3.59375 0  0 3.28125 0  0.3671728545238024 1.91548857130656 0  4.325973096298172 0.5956562233506 0  1.24029033784546 -0.1550362922306825 0  3.825711406524689 0.09544563168384024 0  1.625 0.921875 0  1.653156168984253 0.7692030401370287 0  2.375 -0.25 0  2.27472926822759 -0.08568266044027441 0  0.1521310782439045 0.4134673781906418 0  0.4848189282343908 1.1324779196198 0  0.3358172581002148 2.207992647950609 0  1.544174202707276 -0.1930217753384095 0  0.9364064729836441 -0.1170508091229555 0  1.125 0.984375 0  0.8471310683610745 4.007980638911522 0  0.6126792943060756 0.3365424794406562 0  0.850768130164312 2.969465687535803 0  1.644206836021766 -0.06435706276321013 0  2.45650482645157 0.6665831607485503 0  2.40716991411009 0.25 0  2.542521836902842 0.4198782008918596 0  2.678616523516816 0.25 0  0.873872846740445 3.424174785275223 0  1.373795061992237 0.7955646549967906 0  3.625 -0.25 0  2.067783257431581 0.7157702568835523 0  3.080805826175841 0.6241248693908107 0  1 2.65716991411009 0  0.8360132672207536 2.543362906081544 0  3.242417478527523 0.6222457872094996 0  0.1258721038894845 2.109375 0  0.8655474010931057 3.57023865565284 0  1.991022345091551 0.03639359768473888 0  3.489725188222061 -0.08648404328593318 0  3.527728175868497 0.1338834764831844 0  0.1431417853391524 1.748403306234899 0  0.7999248195469919 0.7541917268176694 0  0.5041917268176693 0.04992481954699185 0  0.144727237356486 1.423458187400926 0  3.375 -0.25 0  0.8544829369904072 1.969727084723336 0  2.084276530670035 -0.1310435907879178 0  0.351750978914064 2.929113754937353 0  0.1336048533321976 3.674201481624954 0  3.582118172169233 0.61117342507885 0  1.39620661760173 0.6112015078027588 0  0.6179726958077213 2.492417478527522 0  0.1423302305544601 2.993598458633508 0  3.174174785275224 0.3612148282201787 0  0.6343823480541589 4.181387585976174 0  1.140625 0.3686503615930594 0  0.8418238504237667 4.368128994449102 0  4.609834957055044 0.5151650429449556 0  0.3418238504237668 3.868128994449103 0  0.8901650429449554 3.777728175868497 0  3.704504871165134 0.3598349570550447 0  4.484834957055044 0.3901650429449554 0  3.934862443266489 -0.1152416925844479 0  0.3901650429449555 3.631281566461771 0  4.109834957055044 0.0151650429449552 0  0.1171875 2.265625 0  1.078366076880243 0.8103651640050832 0  0.1235682741621352 2.745278973321564 0  0.3728501626657168 2.636036298147391 0  2.203584957055044 0.1276808261758408 0  0.34234
[...]
<PointData  Vectors="f_161"> 
<DataArray  type="Float64"  Name="f_161"  NumberOfComponents="3" format="ascii">-4.9999999999998747e-02 -9.9999999999999686e-02 0.0000000000000000e+00  6.2549304857647698e-17 1.8720742651056529e-17 0.0000000000000000e+00  -4.9999999999999745e-01 8.3749224889018356e-02 0.0000000000000000e+00  -4.9999999999999528e-01 8.3749224889018245e-02 0.0000000000000000e+00  -5.4235087774584789e-01 -8.3749224889018384e-02 0.0000000000000000e+00  -4.9999999999999711e-01 -8.3749224889018412e-02 0.0000000000000000e+00  1.4412280563537061e-01 -1.6874612444509096e-01 0.0000000000000000e+00  -3.5587719436462295e-01 -8.4996899556073272e-02 0.0000000000000000e+00  -3.5587719436462384e-01 -8.4996899556072925e-02 0.0000000000000000e+00  1.1379846816046244e+00 -6.0840592817250760e-01 0.0000000000000000e+00  5.1995069285472884e-01 -5.1051896076281744e-01 0.0000000000000000e+00  4.9429234187998650e-01 -6.6464190527471956e-01 0.0000000000000000e+00  1.3244583649858463e+00 -6.0965360283956616e-01 0.0000000000000000e+00  3.5016953624461694e-01 -4.9589578082962893e-01 0.0000000000000000e+00  1.1803355593504763e+00 -4.4090747839446875e-01 0.0000000000000000e+00  -1.9611613513818332e-01 9.0105369690843731e-03 0.0000000000000000e+00  9.1947666938021311e-01 -5.7379765894991774e-01 0.0000000000000000e+00  1.0203721927493582e-01 -2.6101878397149575e-01 0.0000000000000000e+00  -3.5587719436462695e-01 -8.4996899556074174e-02 0.0000000000000000e+00  -1.0587719436462854e-01 -1.5187151200058299e-01 0.0000000000000000e+00  8.5484554542678892e-01 -6.4075968406983197e-01 0.0000000000000000e+00  7.6525254779754626e-01 -4.6840162961204979e-01 0.0000000000000000e+00  -5.1839360347121377e-01 -8.3749224889018509e-02 0.0000000000000000e+00  1.0896519552063166e+00 -6.2520664345469557e-01 0.0000000000000000e+00  7.1971368111747180e-01 -5.4215830985636959e-01 0.0000000000000000e+00  5.5771104202108135e-01 -4.8214870522083936e-01 0.0000000000000000e+00  -4.9999999999999473e-01 8.3749224889018203e-02 0.0000000000000000e+00  -5.3037224060853083e-01 -8.3749224889018120e-02 0.0000000000000000e+00  9.7279405357401127e-01 -4.5465455400326116e-01 0.0000000000000000e+00  6.7456894365338782e-01 -6.5270079467227649e-01 0.0000000000000000e+00  -3.5587719436462734e-01 -8.4996899556073660e-02 0.0000000000000000e+00  2.8329033506782580e-01 -3.8576887236715790e-01 0.0000000000000000e+00  3.4420757375767747e-01 -4.1669401485990476e-01 0.0000000000000000e+00  -3.4805806756909080e-01 3.7145340596715863e-02 0.0000000000000000e+00  -2.7499999999999802e-01 -7.9374612444509052e-02 0.0000000000000000e+00  2.0008476812230841e-01 -2.4794789041481397e-01 0.0000000000000000e+00  -5.0919680173560544e-01 -8.3749224889018037e-02 0.0000000000000000e+00  -2.3087719436462864e-01 -1.2468420577832806e-01 0.0000000000000000e+00  1.9122805635370294e-02 -1.6655881822283664e-01 0.0000000000000000e+00  -4.9999999999999556e-01 8.3749224889018259e-02 0.0000000000000000e+00  -4.9999999999999573e-01 8.3749224889018287e-02 0.0000000000000000e+00  -3.8749999999999785e-01 -7.8436918666763542e-02 0.0000000000000000e+00  -1.6249999999999920e-01 -8.6562306222254554e-02 0.0000000000000000e+00  5.9561402817685904e-02 -1.3437306222254594e-01 0.0000000000000000e+00  1.4480148099006933e-02 -1.8050939198574709e-01 0.0000000000000000e+00  1.0629238406115420e-01 -1.2397394520740697e-01 0.0000000000000000e+00  -2.4999999999999818e-02 -3.7499999999999964e-02 0.0000000000000000e+00  -9.8058067569091689e-02 6.5911463838832802e-04 0.0000000000000000e+00  1.4467787422998563e-01 -2.5740467201934686e-01 0.0000000000000000e+00  -5.0459840086779950e-01 -8.3749224889018384e-02 0.0000000000000000e+00  -5.2438292203986880e-01 -8.3749224889018259e-02 0.0000000000000000e+00  -3.5587719436462784e-01 -8.4996899556073299e-02 0.0000000000000000e+00  3.9469460871202633e-01 -4.4814391656498609e-01 0.0000000000000000e+00  4.2549995781883282e-01 -5.4066796006731233e-01 0.0000000000000000e+00  5.8443064276668732e-01 -6.5867134997349641e-01 0.0000000000000000e+00  6.1983218698610054e-01 -5.2633863530959590e-01 0.0000000000000000e+00  -1.8363417963962425e-01 -1.2567886376954227e-01 0.0000000000000000e+00  1.2070551600960826e+00 -6.1743012314712986e-01 0.0000000000000000e+00  1.2312215232952350e+00 -6.0902976550603605e-01 0.0000000000000000e+00  -3.5587719436462406e-01 -8.4996899556073743e-02 0.0000000000000000e+00  -4.4911403605523259e-01 -8.4373062222545869e-02 0.0000000000000000e+00  -5.3636155917718364e-01 -8.3749224889018162e-02 0.0000000000000000e+00  -5.2117543887291728e-01 2.9415603458168102e-17 0.0000000000000000e+00  1.0287306754924193e+00 -5.9110179356121351e-01 0.0000000000000000e+00  1.1591601204775519e+00 -5.2465670328349001e-01 0.0000000000000000e+00  -3.5587719436462667e-01 -8.4996899556073244e-02 0.0000000000000000e+00  9.7224875031655345e-01 -6.3298316376226060e-01 0.0000000000000000e+00  8.1622805635371012e-02 -1.6921497133396438e-01 0.0000000000000000e+00  -7.1193223374412529e-02 -1.2544745067926205e-01 0.0000000000000000e+00  1.8573787192212918e-01 -3.2339382816932549e-01 0.0000000000000000e+00  4.5394028913284890e-01 -4.8902224302523339e-01 0.0000000000000000e+00  2.3326808353339107e-01 -3.5145990039271113e-01 0.0000000000000000e+00  -1.6837719436462650e-01 -1.3984035888945517e-01 0.0000000000000000e+00  -5.1379520260340972e-01 -8.3749224889018203e-02 0.0000000000000000e+00  7.4885701944196900e-02 -1.5741239521950329e-01 0.0000000000000000e+00  7.6470724454008920e-01 -6.4673023937105301e-01 0.0000000000000000e+00  8.1959517524884251e-01 -5.5797798440314283e-01 0.0000000000000000e+00  1.0765648064622442e+00 -4.4778101619886396e-01 0.0000000000000000e+00  -4.9999999999999661e-01 8.3749224889018273e-02 0.0000000000000000e+00  -2.9337719436462939e-01 -1.0640305266720053e-01 0.0000000000000000e+00  -2.9846987982110351e-01 -1.1449116489626447e-01 0.0000000000000000e+00  8.6902330068577838e-01 -4.6152809180765419e-01 0.0000000000000000e+00  2.8137715218346249e-01 -3.7192183562222131e-01 0.0000000000000000e+00  6.6148179490931369e-01 -4.7527516741644221e-01 0.0000000000000000e+00  2.5041518969652410e-01 -2.9272006965249853e-01 0.0000000000000000e+00  4.2255105425065043e-01 -4.4594064136884698e-01 0.0000000000000000e+00  3.2850638357765100e-01 -4.1385904590336559e-01 0.0000000000000000e+00  -2.7208710135363601e-01 2.0769303699816121e-02 0.0000000000000000e+00  -4.2402903378454365e-01 5.8138647659783237e-02 0.0000000000000000e+00  -3.6313695114404654e-01 -1.0468668170835572e-01 0.0000000000000000e+00  -4.9999999999999667e-01 8.3749224889018301e-02 0.0000000000000000e+00  5.2833695692565474e-01 -4.7311598463857146e-01 0.0000000000000000e+00  -5.1469319085421550e-01 -5.9519276001109931e-03 0.0000000000000000e+00  5.5945914725143420e-01 -5.7518892177833214e-01 0.0000000000000000e+00  -4.9999999999999523e-01 8.3749224889018190e-02 0.0000000000000000e+00  6.3483866421223045e-01 -4.8817279974741706e-01 0.0000000000000000e+00  -4.8962615353645333e-01 -2.3939138215439098e-03 0.0000000000000000e+00  7.3713651352023002e-01 -4.9475330391267192e-01 0.0000000000000000e+00  -4.4594910385934849e-01 -8.4997473396535184e-02 0.0000000000000000e+00  -4.4267452239172345e-01 -9.8581565959569711e-03 0.0000000000000000e+00  4.5718789641428359e-01 -5.3409548518696881e-01 0.0000000000000000e+00  8.5224049817680969e-01 -5.0718582079306795e-01 0.0000000000000000e+00  6.4633893609994342e-01 -5.9142622783045207e-01 0.0000000000000000e+00  9.4693514507771503e-01 -5.0719473098892109e-01 0.0000000000000000e+00  -4.3705739690099449e-01 -8.4449073881588052e-02 0.0000000000000000e+00  1.1403973905292142e+00 -6.1278638997989465e-01 0.0000000000000000e+00  8.6971086400012498e-01 -5.9928770949208487e-01 0.0000000000000000e+00  1.0259253968599764e+00 -6.1154054822450443e-01 0.0000000000000000e+00  -5.1923244716483952e-01 -1.0160490041436630e-02 0.0000000000000000e+00  1.0595883482344490e+00 -5.2269931347604859e-01 0.0000000000000000e+00  -5.0565744601553597e-01 -4.4842139178084906e-03 0.0000000000000000e+00  -5.0153647110718580e-01 -5.0594566369186822e-03 0.0000000000000000e+00  -4.5181480508608601e-01 -8.4374670433316118e-02 0.0000000000000000e+00  -4.0055234953110563e-01 -9.6055177605709099e-02 0.0000000000000000e+00  -5.1135178409109872e-01 6.0748250347514993e-04 0.0000000000000000e+00  -5.0848220366626962e-01 -5.2059074974421379e-03 0.0000000000000000e+00  -4.3659227440948406e-01 -8.4440738510443369e-02 0.0000000000000000e+00  7.6648943152602345e-01 -5.9327413839639276e-01 0.0000000000000000e+00  -4.4038589990624899e-01 -8.4412291712407800e-02 0.0000000000000000e+00  3.6061751521754365e-01 -4.4852115746196403e-01 0.0000000000000000e+00  -3.5518489894381533e-01 -2.0596769156406396e-02 0.0000000000000000e+00  -1.9358276279092429e-01 -1.0994340577348542e-01 0.0000000000000000e+00  -4.2988620722455922e-01 -8.7671779388626456e-02 0.0000000000000000e+00  -4.3377194364629883e-02 -1.6077766511171018e-01 0.0000000000000000e+00  -4.9999999999999201e-01 8.3749224889018231e-02 0.0000000000000000e+00  -3.7499999999999478e-02 -6.5624999999999878e-02 0.0000000000000000e+00  9.4806510232121155e-01 -6.0379362857130325e-01 0.0000000000000000e+00  2.6560616387824959e-01 -3.5363454888261892e-01 0.0000000000000000e+00  -2.5884438883827338e-01 -3.2391538294828659e-02 0.0000000000000000e+00  -2.0644541335112166e-02 -1.4025469599287343e-01 0.0000000000000000e+00  7.9057014088429467e-03 -1.1718653111127306e-01 0.0000000000000000e+00  -3.2348322179986289e-01 -1.0422163895235123e-01 0.0000000000000000e+00  1.0496710422652783e-01 -1.5155959333381905e-01 0.0000000000000000e+00  -8.9038497264877461e-02 -1.3788147227856556e-01 0.0000000000000000e+00  1.8042944311578177e-01 -2.7783212266078994e-01 0.0000000000000000e+00  -1.6106739519707369e-01 -4.4797643677746996e-02 0.0000000000000000e+00  3.8854573304845451e-02 -1.6309356271344783e-01 0.0000000000000000e+00  1.0833576785485224e+00 -5.9975386086685922e-01 0.0000000000000000e+00  1.1485724010410869e+00 -5.6653131572800486e-01 0.0000000000000000e+00  -5.3935621846151760e-01 -8.3749224889018259e-02 0.0000000000000000e+00  -5.3176315830939169e-01 -4.1874612444509317e-02 0.0000000000000000e+00  -5.9937178800183073e-02 -1.1460815012118671e-01 0.0000000000000000e+00  -1.2499999999999742e-02 -1.5624999999999899e-02 0.0000000000000000e+00  5.4708692030577051e-02 -6.1986972603703429e-02 0.0000000000000000e+00  -4.9029033784545914e-02 -6.3198114234434203e-04 0.0000000000000000e+00  4.2584081903794639e-02 -9.4303762881138967e-02 0.0000000000000000e+00  -4.1294909699217780e-01 -8.4784850520427169e-02 0.0000000000000000e+00  8.1412549813798529e-01 -4.9264911782866139e-01 0.0000000000000000e+00  -5.0614083811566346e-01 2.9587061499963620e-02 0.0000000000000000e+00  1.0350505989605474e+00 -4.9435581569470860e-01 0.0000000000000000e+00  -2.1874999999999975e-01 -8.2187209333381944e-02 0.0000000000000000e+00  9.1354714787167135e-01 -6.3687142391604756e-01 0.0000000000000000e+00  5.5374068302355688e-02 -2.2076408797862090e-01 0.0000000000000000e+00  -1.4708710135363690e-01 3.8732873421978482e-03 0.0000000000000000e+00  8.1713786946534628e-01 -6.1583552750399695e-01 0.0000000000000000e+00  2.2378751406071684e-01 -3.3188929459086702e-01 0.0000000000000000e+00  2.4229346015288541e-01 -3.0993486301851880e-01 0.0000000000000000e+00  7.7090836475018812e-02 -2.1244261484555554e-01 0.0000000000000000e+00  1.5471552665713859e-01 -2.8626754823752854e-01 0.0000000000000000e+00  1.4614202035658247e-01 -2.2798111307798891e-01 0.0000000000000000e+00  -3.7387344415969731e-01 -9.4021254031247531e-02 0.0000000000000000e+00  7.1963809409673685e-01 -6.4971551702166797e-01 0.0000000000000000e+00  -3.5587719436463228e-01 -8.4996899556074076e-02 0.0000000000000000e+00  -1.9698041363516597e-01 -1.3040650143099816e-01 0.0000000000000000e+00  -2.7443594564234708e-01 -1.0283723326181722e-01 0.0000000000000000e+00  -5.3336689989285657e-01 -8.3749224889018120e-02 0.0000000000000000e+00  1.2879496750651281e-02 -1.3576894184558710e-01 0.0000000000000000e+00  7.0658950101911666e-01 -5.8226995718505348e-01 0.0000000000000000e+00  1.4910084770579051e-02 -1.1332303250171553e-01 0.0000000000000000e+00  1.5413235874939675e-02 -1.4747005420764020e-01 0.0000000000000000e+00  -1.7067302061825282e-01 -1.0331246963189182e-01 0.0000000000000000e+00  -5.1364811261722787e-01 -3.0177738860077963e-02 0.0000000000000000e+00  -5.0229920043390630e-01 -8.3749224889018675e-02 0.0000000000000000e+00  -3.9163592354681015e-01 -1.0045643606720854e-01 0.0000000000000000e+00  -3.1858499881888014e-01 -1.0817204448740216e-01 0.0000000000000000e+00  1.1310676761659075e-01 -2.1001483467659157e-01 0.0000000000000000e+00  -1.1649150758329348e-01 -3.8558213530293706e-02 0.0000000000000000e+00  6.6977293405178484e-01 -5.3424847258297992e-01 0.0000000000000000e+00  -2.7580413603923482e-01 -1.1966393312288588e-01 0.0000000000000000e+00  -5.1176262956912344e-01 2.0002948727646366e-02 0.0000000000000000e+00  9.7410367243631601e-01 -5.8244972625556501e-01 0.0000000000000000e+00  3.1733584421403971e-01 -4.3390880822592476e-01 0.0000000000000000e+00  -5.2138826275554151e-01 -8.3749224889018217e-02 0.0000000000000000e+00  1.1483535576511994e+00 -6.2131838330091205e-01 0.0000000000000000e+00  1.2778399441405404e+00 -6.0934168417279755e-01 0.0000000000000000e+00  1.2657567625409631e+00 -6.1354186299335478e-01 0.0000000000000000e+00  -4.0249561520993471e-01 -8.4684980889310243e-02 0.0000000000000000e+00  -3.5587719436463283e-01 -8.4996899556074118e-02 0.0000000000000000e+00  -3.5587719436462623e-01 -8.4996899556073216e-02 0.0000000000000000e+00  -5.1058771943646009e-01 4.1874612444509178e-02 0.0000000000000000e+00  1.1846031024499306e+00 -6.0871784683926722e-01 0.0000000000000000e+00  -4.9573245690054313e-01 -8.4061143555782161e-02 0.0000000000000000e+00  1.1697478399140124e+00 -4.8278209083897827e-01 0.0000000000000000e+00  -5.2737758132420343e-01 -8.3749224889018328e-02 0.0000000000000000e+00  1.0309503527614354e+00 -6.2909490360847908e-01 0.0000000000000000e+00  1.0803293653487116e+00 -6.0794298323270579e-01 0.0000000000000000e+00  3.1055699895309419e-01 -4.1794631037160657e-01 0.0000000000000000e+00  5.6989143992041424e-01 -5.1842879803620812e-01 0.0000000000000000e+00  6.5375828249831669e-01 -5.0299873983373344e-01 0.0000000000000000e+00  4.0991248982470563e-01 -4.5152192409327085e-01 0.0000000000000000e+00  1.5475107609173094e-01 -1.8596091781111082e-01 0.0000000000000000e+00  2.3278262718266468e-01 -3.5458135026824039e-01 0.0000000000000000e+00  2.4590240433417593e-01 -3.6139071379024990e-01 0.0000000000000000e+00  1.4215606928621885e-01 -2.9220630607041059e-01 0.0000000000000000e+00  3.0705762942646514e-01 -3.9605508889122593e-01 0.0000000000000000e+00  -1.3712719436463078e-01 -1.4624656044501949e-01 0.0000000000000000e+00  8.1883541719401720e-01 -5.8700631588784680e-01 0.0000000000000000e+00  -4.6933396624110579e-01 -8.4223561425275123e-02 0.0000000000000000e+00  4.0205491268873284e-01 -4.9245901192743258e-01 0.0000000000000000e+00  9.4810117022602669e-02 -2.0082866622050877e-01 0.0000000000000000e+00  -4.9999999999999917e-01 8.3749224889018509e-02 0.0000000000000000e+00  9.2090867712989444e-01 -4.5809132290545918e-01 0.0000000000000000e+00  7.1081754374869943e-01 -4.8523712782640466e-01 0.0000000000000000e+00  -4.0799063774658834e-01 -8.4653020300091322e-02 0.0000000000000000e+00  -4.6872230338964316e-01 -8.4340129299960237e-02 0.0000000000000000e+00  -5.0427613247475400e-01 3.0179794724401077e-02 0.0000000000000000e+00  8.6953592231452848e-01 -5.6588782167653295e-01 0.0000000000000000e+00  9.5508367394631055e-01 -5.3289444573445921e-01 0.0000000000000000e+00  -3.9630064912325896e-01 -9.8082944706580286e-02 0.0000000000000000e+00  1.9399313835456766e-01 -2.8665227630141321e-01 0.0000000000000000e+00  7.3795197548403546e-01 -5.1283935162254168e-01 0.0000000000000000e+00  9.3454963355053788e-01 -4.8612509123072434e-01 0.0000000000000000e+00  5.0582566557696507e-01 -4.8558547412303593e-01 0.0000000000000000e+00  7.6965442818315699e-01 -5.5006814712975660e-01 0.0000000000000000e+00  -3.5587719436462784e-01 -8.4996899556073646e-02 0.0000000000000000e+00  -3.5587719436462872e-01 -8.4996899556073632e-02 0.0000000000000000e+00  -3.5587719436463006e-01 -8.4996899556074063e-02 0.0000000000000000e+00  5.0372805635369382e-02 -1.6827751977840164e-01 0.0000000000000000e+00  5.0724152163647318e-01 -5.4067832219058942e-01 0.0000000000000000e+00  4.5559117447106473e-01 -4.7933143866390171e-01 0.0000000000000000e+00  5.0158456139414198e-01 -5.8738549004574947e-01 0.0000000000000000e+00  5.3936149232333619e-01 -6.6165662762411015e-01 0.0000000000000000e+00  2.7680224417792493e-01 -3.9115164034066008e-01 0.0000000000000000e+00  -4.8704306686223836e-01 -8.4086067977287723e-02 0.0000000000000000e+00  5.0606509558204593e-01 -4.6748946677833192e-01 0.0000000000000000e+00  6.0959641846519774e-01 -4.7871193631864428e-01 0.0000000000000000e+00  6.8591245975699988e-01 -6.1538842583271713e-01 0.0000000000000000e+00  -5.0222862603956109e-01 2.8924572845082666e-02 0.0000000000000000e+00  -4.3469910956495167e-01 -9.0070793574114100e-02 0.0000000000000000e+00  1.0041873127908156e+00 -5.9812618885965607e-01 0.0000000000000000e+00  -4.6201451689227313e-01 7.0366777503630074e-02 0.0000000000000000e+00  -4.6897054768233498e-01 3.1675837538020016e-02 0.0000000000000000e+00  -2.0621988150598508e-01 -4.2710028357106959e-02 0.0000000000000000e+00  3.0201122670412683e-01 -3.9508206642945359e-01 0.0000000000000000e+00  -3.1608577604159893e-01 -9.3161701580451502e-03 0.0000000000000000e+00  -3.9844013335149575e-01 -3.0368050597377898e-02 0.0000000000000000e+00  4.0166642761322935e-01 -4.7764252812158237e-01 0.0000000000000000e+00  3.3726099557761302e-01 -4.1695639446607186e-01 0.0000000000000000e+00  -5.1609440303731413e-01 -8.3749224889018578e-02 0.0000000000000000e+00  -1.0624999999999894e-01 -9.2499903111127033e-02 0.0000000000000000e+00  -4.4374999999999915e-01 -8.0311821777891174e-02 0.0000000000000000e+00  -3.3124999999999927e-01 -7.8124515555636362e-02 0.0000000000000000e+00  8.1713792424166232e-01 -4.6496486070985621e-01 0.0000000000000000e+00  7.1336717135342953e-01 -4.7183839851424919e-01 0.0000000000000000e+00  1.9883149766594574e-01 -2.3073309704879649e-01 0.0000000000000000e+00  2.9887388172710033e-01 -3.5470704225620442e-01 0.0000000000000000e+00  3.8641626578825444e-01 -4.7868098746361121e-01 0.0000000000000000e+00  4.6145864984940876e-01 -6.0265493267101766e-01 0.0000000000000000e+00  1.1284501829063602e+00 -4.4434424729667282e-01 0.0000000000000000e+00  1.0246794300181270e+00 -4.5121778510106525e-01 0.0000000000000000e+00  4.4574400031934452e-01 -4.5477812242374194e-01 0.0000000000000000e+00  -4.1233358361350236e-01 -8.4612527386213082e-02 0.0000000000000000e+00  -3.1007258446136488e-01 2.8380163377495361e-02 0.0000000000000000e+00  -5.2155462798317409e-01 -3.1974002802015053e-02 0.0000000000000000e+00  -1.2127194364630570e-02 -1.6405886666727404e-01 0.0000000000000000e+00  -9.4706213039316547e-02 -1.4400097330544415e-01 0.0000000000000000e+00  -4.9999999999999867e-01 8.3749224889018481e-02 0.0000000000000000e+00  -4.9738534338627710e-01 2.8469988370774083e-02 0.0000000000000000e+00  9.9750568775528597e-02 -1.5224275957930072e-01 0.0000000000000000e+00  1.7952524619066496e-01 -3.1260449658467115e-01 0.0000000000000000e+00  5.5630038076739530e-01 -4.8801540191531023e-01 0.0000000000000000e+00  -3.8604355067681800e-01 4.7064835357478754e-02 0.0000000000000000e+00  -2.3410161824591125e-01 1.4312761563679452e-02 0.0000000000000000e+00  1.1287280563536871e-01 -1.6937117288952971e-01 0.0000000000000000e+00  1.0736679156657307e+00 -6.1650985345625586e-01 0.0000000000000000e+00  -1.5627055023166015e-02 -1.1268652144482227e-01 0.0000000000000000e+00  7.3593765145473544e-01 -6.1770496147930376e-01 0.0000000000000000e+00  -3.9742333784543010e-01 1.2839541000947747e-02 0.0000000000000000e+00  -2.9635280561193655e-01 -1.1452549792723526e-01 0.000