<?xml version="1.0"?>
<VTKFile type="UnstructuredGrid"  version="0.1"  >
<UnstructuredGrid>
<Piece  NumberOfPoints="1410" NumberOfCells="2582">
<Points>
<DataArray  type="Float64"  NumberOfComponents="3"  format="ascii">0.75 0.25 0  0 0 0  2 -0.25 0  4 -0.25 0  4 0.25 0  2 0.25 0  1 1 0  4 0.75 0  3 0.75 0  0.5 4.25 0  0.5 2.25 0  1 2.25 0  1 4.25 0  0 1.25 0  0 4.25 0  0.7844645405527362 -0.09805806756909202 0  0.6519419324309079 1.034464540552736 0  2 0.875 0  0 2.75 0  3 0.25 0  0.5 3.25 0  0 2 0  3 -0.25 0  0 3.5 0  1 3.25 0  0.5 2.75 0  1 2.75 0  0.575970966215454 1.642232270276368 0  1 1.625 0  1.392232270276368 -0.174029033784546 0  1.375 0.25 0  0 0.625 0  1 3.75 0  0.5 3.75 0  2.5 -0.25 0  2.5 0.25 0  3.5 -0.25 0  3.5 0.25 0  3.5 0.75 0  2.5 0.8125 0  1.5 0.9375 0  1.6875 0.25 0  1.0625 0.25 0  0.875 0.625 0  0.700970966215454 0.6422322702763681 0  0 0.3125 0  0.375 0.125 0  0.3922322702763681 -0.04902903378454601 0  0.3464664973773267 0.7970996614213204 0  2.25 0.53125 0  0 3.125 0  0 2.375 0  0 1.625 0  0 3.875 0  0.537985483107727 1.946116135138184 0  1 1.9375 0  1.715073529411765 0.6268382352941176 0  3.25 0.25 0  3.25 -0.25 0  2.25 0.25 0  2.25 -0.25 0  2.75 0.25 0  2.75 -0.25 0  0.5 3.5 0  1 3.5 0  0.5 4 0  1 4 0  0.75 4.25 0  1 3 0  0.5 3 0  1 2.5 0  0.5 2.5 0  4 0 0  3.75 0.25 0  3.75 -0.25 0  1.25 0.96875 0  1.2451171875 0.59765625 0  0.293853011932077 1.4375 0  1 1.3125 0  0.6139564493231809 1.338348405414552 0  0.4116857159777551 0.4632129806755783 0  0.2928501320423879 1.115056149148878 0  0.284201940513483 1.760077167188763 0  0 0.9375 0  2.75 0.78125 0  1.088348405414552 -0.136043550676819 0  1.696116135138184 -0.212014516892273 0  2.591796875 0.53125 0  0.75 3.625 0  0.75 2.375 0  0.75 2.875 0  0.25 3.625 0  2.625 0 0  2.869887408088236 0.5025562959558824 0  3.125 0 0  3.150678214896726 0.5128391074483631 0  3.625 0 0  0.2785016588824192 2.067996682235162 0  0.21875 3.3125 0  0.21875 2.5625 0  0.25 2.875 0  2.125 0 0  0.25 4.25 0  3.625 0.5 0  1.84375 0.02182631533805432 0  0.7718263153380543 2.09375 0  1.986741274157778 0.6025731993874749 0  0.7939852294895662 1.78125 0  1.53125 0.04398522948956621 0  0.2625 3.8875 0  1.487674840542341 0.4901847565263522 0  1.75 0.90625 0  2.25 0.84375 0  3.25 0.75 0  0.75 4 0  0.75 3.354166666666667 0  0.71875 2.625 0  2.875 0.03125 0  2.375 0.03125 0  3.375 0.03125 0  4 0.5 0  3.75 0.75 0  0.2416684284745848 2.314407666779651 0  0.783116615667627 1.513809451332749 0  1.21875 0.06657492251677036 0  0.7135416666666666 3.114583333333333 0  3.388696598780641 0.5380982993903208 0  0.9375 0.8125 0  0.5625 0.1875 0  0.5883484054145521 -0.07354355067681902 0  1.834292433496893 0.4286869955403995 0  0 4.0625 0  1.508268243309771 0.7134447566805204 0  0.8397364341934612 1.15625 0  0.90625 0.08973643419346128 0  0.1762287579962529 0.46875 0  0.2947198275862069 3.098060344827586 0  1.050226080907534 0.4782380404537671 0  0.1875 0.0625 0  0 0.15625 0  0.196116135138184 -0.02451451689227301 0  0.2235726073555983 0.2667821779332051 0  0.725485483107727 0.446116135138184 0  0.8125 0.4375 0  1.21875 0.25 0  0 2.1875 0  0.6764564493231809 0.8383484054145521 0  0.4192012547977333 1.2758866510268 0  0.4944620909057268 0.6526950569812381 0  0.4992042149041173 0.9157821009870283 0  0 0.78125 0  0.194937005463869 0.6673564002429151 0  1.86255880264684 0.7451530740852181 0  2.357421875 0.6875 0  2.081166387241662 0.429588211340745 0  2.4208984375 0.4314236111111111 0  1.066781649073149 0.6699599996672357 0  0 2.5625 0  0 2.9375 0  0 3.3125 0  0 3.6875 0  0 1.8125 0  0 1.4375 0  3.8125 0.4375 0  3.8125 -0.0625 0  0.6875 3.8125 0  0.1700218302012254 0.859375 0  0.1690472196096196 1.911957914763972 0  1.21668432001436 0.78360936544389 0  1.313806319838196 0.4252282586228372 0  0.4784532254937536 1.100111179048576 0  0.3209821428571429 4.070982142857143 0  0.8203557082857347 1.336443668828191 0  0.8198947473657886 0.9558684175447372 0  0.7058684175447372 0.06989474736578868 0  2.10922165655377 0.733148252430158 0  3.859375 0.109375 0  0.859375 3.859375 0  1 4.125 0  0.875 4.25 0  0.5 4.125 0  0.625 4.25 0  3.859375 0.609375 0  1.655097146789825 0.4262580653019079 0  0.3899606708444321 1.601808367909216 0  0.188094281601128 1.595768799279547 0  0.1897730363172224 1.276600229362483 0  0.5949637077693175 1.49029033784546 0  0.1449053692805861 1.028784568397856 0  0.4239027738342909 0.2907916784971273 0  0.5807733567378052 0.3566502915297626 0  0.3236607142857143 2.709821428571428 0  0.3236607142857143 3.459821428571428 0  0.1400216896236526 3.03125 0  1.53125 0.25 0  0.1360119047619048 3.78125 0  0.1627182813733228 3.487063437253354 0  0.1627182813733228 2.737063437253354 0  2.720703257667097 0.418640211343992 0  0.3424301829456695 0.9599178797904677 0  1.375 0.953125 0  0.1593355272190568 4.110469297041258 0  3.281711152186982 0.4121684663171481 0  0.5 2.375 0  0.3410285945110505 2.448691175299727 0  1 3.125 0  0.8543087121212121 3.1875 0  0.5569782246615904 1.794174202707276 0  0.3652817565949378 1.915590656671834 0  0.6676801583862377 2.227139683227525 0  1.848058067569092 -0.2310072584461365 0  1.94122119384032 -0.1029663487768788 0  1.063574437333265 0.09265221344022306 0  1.370508994627147 -0.006847336588330449 0  1.691189739895822 0.0849409808883908 0  0.7102041511586388 1.932344835250979 0  0.90625 0.25 0  0 0.46875 0  1.84375 0.25 0  1 1.15625 0  1 1.46875 0  1 1.78125 0  1 2.09375 0  0 1.09375 0  1.24029033784546 -0.1550362922306825 0  0.5813838356180708 0.5174325975864416 0  0.5189927415538635 2.098058067569092 0  1.625 0.921875 0  3.434929322219013 0.3904102382632201 0  0.8461896960869875 3.030838823550802 0  1.653156168984253 0.7692030401370287 0  3.262867647058823 -0.08731617647058823 0  3.125 -0.25 0  0.8373161764705882 2.512867647058823 0  1 2.375 0  0.8692187841679423 2.66535148562213 0  2.762867647058823 -0.08731617647058823 0  2.625 -0.25 0  2.91535148562213 -0.1192187841679423 0  2.262867647058823 -0.08731617647058823 0  2.125 -0.25 0  2.41535148562213 -0.1192187841679423 0  3.41535148562213 -0.1192187841679423 0  1.544174202707276 -0.1930217753384095 0  0.6329491908770444 1.186406472983644 0  0.9364064729836441 -0.1170508091229555 0  1.125 0.984375 0  0.4504336144101285 1.42952773224714 0  1.644206836021766 -0.06435706276321013 0  2.740664765945612 0.6121009952805112 0  2.625 0.796875 0  0.124662354175549 2.09375 0  3.125 0.25 0  3.01361133488061 0.4168063371840494 0  2.875 0.25 0  1.373795061992237 0.7955646549967906 0  0.3420767846962419 0.6064437720353588 0  2.5625 0.3852064344618056 0  2.508037860576923 0.6595177283653846 0  0.1469265059660385 1.453790009288674 0  2.875 0.765625 0  0.1699209010469667 3.174524454330363 0  0.7999248195469919 0.7541917268176694 0  0.5041917268176693 0.04992481954699185 0  0.8544829369904072 1.969727084723336 0  0.6614583333333334 3.489583333333333 0  0.5 3.625 0  1 3.375 0  0.868923611111111 3.4375 0  0.1332176882968829 1.738129301927728 0  0.5 3.375 0  0.109375 2.46875 0  0.3498212186520376 3.238257983934169 0  1.39620661760173 0.6112015078027588 0  0.3515544365587217 2.204874914095091 0  0.1274818974577599 3.960380153387042 0  1.140625 0.3686503615930594 0  1.986051070991002 0.03251070901556422 0  0.8389661381605011 2.240432276321002 0  0.5 3.125 0  2.28246200534612 0.390625 0  3.007334260338529 0.5882132356141939 0  3.125 0.75 0  1.078366076880243 0.8103651640050832 0  3.0625 0.125 0  0.625 2.4375 0  0.8541666666666666 4.104166666666667 0  0.6875 4.125 0  3.6875 0.375 0  0.3591887728535061 2.969122454292988 0  3.6875 -0.125 0  3.520548512937292 0.6040242564686458 0  3.239583333333333 0.09895833333333334 0  3.510416666666667 0.09895833333333333 0  3.625 0.25 0  2.5625 -0.125 0  2.510416666666667 0.09895833333333333 0  2.625 0.25 0  2.239583333333333 0.09895833333333334 0  2.125 0.25 0  2.739583333333333 0.09895833333333334 0  3.0625 -0.125 0  0.6510416666666666 2.760416666666667 0  0.5 2.875 0  0.3426829268292683 3.752134146341464 0  0.5 3.875 0  0.8714095068886598 2.80531901377732 0  0.8825550258945386 3.577610051789077 0  0.8620783455301706 3.717761444253076 0  0.6472120098039215 2.981924019607843 0  3.716032608695652 0.1107336956521739 0  3.716032608695652 0.6107336956521739 0  1.786575790561101 -0.1056013740095049 0  0.4252485344603035 1.739858069965885 0  0.5 2.625 0  0.1308946075780465 2.231795972322868 0  1.850416351396303 0.6092079899891796 0  2.125915028793208 0.5947584569158341 0  3.551580274702736 -0.1148348626486319 0  0.3128577349738648 0.3695669640201116 0  0.6478934961315281 3.247138942617666 0  0.984375 0.3602477313637387 0  0.7242566657366407 1.6501426033772 0  0.8612952327118942 1.628434546378823 0  1.606452791588792 0.5500604232027796 0  1.453125 0.3598714462304637 0  0.625 3.6875 0  0.625 3.9375 0  4 -0.125 0  3.875 -0.25 0  4 0.375 0  3.875 0.25 0  3.152777626956278 0.3799601266325013 0  2.379716795646156 0.5571209725245179 0  0.1174878138409479 1.16171812192113 0  0.5468843282025183 0.7833364103485649 0  2.88346274652106 0.6338764991013285 0  0.3773660714285715 3.951949404761905 0  0.3495104379338289 2.580398005237598 0  1.921875 0.1458186769779903 0  2.375 0.25 0  1.453125 0.1469926147447831 0  1.481445595119689 -0.07758653553853971 0  0.1144799602653395 3.614169841061358 0  0.1144799602653395 2.864169841061358 0  2.080969168287872 0.125 0  3.261146087782943 0.6059538971878488 0  3.375 0.75 0  3.625 0.75 0  0.375 4.25 0  3.56001833055729 0.3630975041640645 0  0.6446247714683205 2.049847905827801 0  2.843059981786046 0.3756833222572615 0  2.227226163353452 0.6771809110312732 0  3 0.015625 0  2.9375 0.140625 0  2.125 0.859375 0  2.375 0.828125 0  1.875 0.890625 0  3.375 0.25 0  1.200132154762156 0.4798401850990263 0  0.8681224940692268 3.312119642433615 0  1 3.625 0  0.375 2.831729609073359 0  3.625 -0.25 0  0.375 3.581729609073359 0  3.375 -0.25 0  2.375 -0.25 0  2.074300107642695 -0.125 0  2.875 -0.25 0  1 2.625 0  0.125 4.25 0  1 3.875 0  4 0.125 0  4 0.625 0  3.875 0.75 0  0.875 2.392417279411764 0
[...]
<PointData  Vectors="f_161"> 
<DataArray  type="Float64"  Name="f_161"  NumberOfComponents="3" format="ascii">1.0000000000000044e-01 -9.9999999999999742e-02 0.0000000000000000e+00  2.8191235992179241e-17 -1.4095617996089621e-17 0.0000000000000000e+00  5.0000000000000278e-01 1.8374922488901826e-01 0.0000000000000000e+00  5.0000000000000466e-01 1.8374922488901829e-01 0.0000000000000000e+00  5.0000000000000355e-01 1.6250775110981622e-02 0.0000000000000000e+00  5.0000000000000311e-01 1.6250775110981736e-02 0.0000000000000000e+00  1.4412280563537000e-01 -1.6874612444509113e-01 0.0000000000000000e+00  5.0000000000000477e-01 1.5003100443926665e-02 0.0000000000000000e+00  6.4412280563537172e-01 1.5003100443926380e-02 0.0000000000000000e+00  1.6015101731670454e+00 8.1817884627022253e-01 0.0000000000000000e+00  9.8347618441715101e-01 9.1606581367991391e-01 0.0000000000000000e+00  9.5781783344240934e-01 7.6194286916800713e-01 0.0000000000000000e+00  1.5758518221923032e+00 6.6405590175832085e-01 0.0000000000000000e+00  8.1369502780703795e-01 9.3068899361310264e-01 0.0000000000000000e+00  1.7852824071502069e+00 9.2092747594482605e-01 0.0000000000000000e+00  1.9611613513818552e-01 2.4395152353699733e-02 0.0000000000000000e+00  3.5117342297695719e-01 2.9853380084987730e-01 0.0000000000000000e+00  3.9412280563537133e-01 -1.2687151200058178e-01 0.0000000000000000e+00  1.2994887174786238e+00 9.2580823477896235e-01 0.0000000000000000e+00  5.0000000000000455e-01 1.6250775110981715e-02 0.0000000000000000e+00  1.2924931787920968e+00 8.6712232997506822e-01 0.0000000000000000e+00  1.0565918726428303e+00 9.2824861419603433e-01 0.0000000000000000e+00  5.0000000000000555e-01 1.8374922488901804e-01 0.0000000000000000e+00  1.5423855623144149e+00 9.2336785536189303e-01 0.0000000000000000e+00  1.2668348278173556e+00 7.1299938546316588e-01 0.0000000000000000e+00  1.1379846816046242e+00 8.9159407182749251e-01 0.0000000000000000e+00  1.1123263306298823e+00 7.3747112731558806e-01 0.0000000000000000e+00  6.3038664236771180e-01 6.0729980726489519e-01 0.0000000000000000e+00  6.0097031953888913e-01 2.9659837236145858e-01 0.0000000000000000e+00  3.4805806756909508e-01 8.5603107956688032e-02 0.0000000000000000e+00  3.0000000000000160e-01 -1.6874612444508989e-02 0.0000000000000000e+00  4.5684751390351930e-01 4.6534449680655138e-01 0.0000000000000000e+00  1.4213433250048293e+00 6.8852764361074681e-01 0.0000000000000000e+00  1.4470016759795721e+00 8.4265058812264926e-01 0.0000000000000000e+00  5.0000000000000577e-01 1.8374922488901835e-01 0.0000000000000000e+00  5.0000000000000411e-01 1.6250775110981903e-02 0.0000000000000000e+00  5.0000000000000766e-01 1.8374922488901829e-01 0.0000000000000000e+00  5.0000000000000644e-01 1.6250775110981799e-02 0.0000000000000000e+00  5.0000000000000488e-01 1.5003100443926829e-02 0.0000000000000000e+00  5.1912280563537172e-01 -6.8434205778328594e-02 0.0000000000000000e+00  2.6912280563537100e-01 -1.6030881822283696e-01 0.0000000000000000e+00  4.0000000000000252e-01 5.9380813332363686e-03 0.0000000000000000e+00  2.0000000000000215e-01 -5.2187306222254447e-02 0.0000000000000000e+00  1.4706140281768518e-01 -1.3437306222254555e-01 0.0000000000000000e+00  2.1020209610386381e-01 9.9266900424939478e-02 0.0000000000000000e+00  2.4092375695175952e-01 2.3267224840327563e-01 0.0000000000000000e+00  5.0000000000000315e-02 -1.2499999999999756e-02 0.0000000000000000e+00  9.8058067569092536e-02 4.5052684845422160e-03 0.0000000000000000e+00  4.0400133864829851e-01 3.7562396341531151e-01 0.0000000000000000e+00  4.7511753539551110e-01 -3.7099651626380604e-02 0.0000000000000000e+00  1.4209371398965187e+00 9.2458804507042913e-01 0.0000000000000000e+00  1.1780402950607265e+00 9.2702842448749845e-01 0.0000000000000000e+00  9.3514345022493406e-01 9.2946880390456921e-01 0.0000000000000000e+00  1.6638339847323116e+00 9.2214766565335904e-01 0.0000000000000000e+00  7.9769687306009618e-01 7.6168281047240394e-01 0.0000000000000000e+00  7.9189407649064802e-01 5.2927062076473563e-01 0.0000000000000000e+00  3.5522723573216280e-01 -8.2615284250644766e-02 0.0000000000000000e+00  5.0000000000000722e-01 1.6250775110981750e-02 0.0000000000000000e+00  5.0000000000000300e-01 1.8374922488901824e-01 0.0000000000000000e+00  5.0000000000000389e-01 1.6250775110981771e-02 0.0000000000000000e+00  5.0000000000000377e-01 1.8374922488901835e-01 0.0000000000000000e+00  5.0000000000000289e-01 1.6250775110981650e-02 0.0000000000000000e+00  5.0000000000000333e-01 1.8374922488901824e-01 0.0000000000000000e+00  1.3697474273858339e+00 8.5488645904885852e-01 0.0000000000000000e+00  1.3440890764110929e+00 7.0076351453695351e-01 0.0000000000000000e+00  1.5242559245733078e+00 8.3041471719643745e-01 0.0000000000000000e+00  1.4985975735985673e+00 6.7629177268453466e-01 0.0000000000000000e+00  1.5886809976796734e+00 7.4111737401427558e-01 0.0000000000000000e+00  1.1895805792236180e+00 7.2523525638937958e-01 0.0000000000000000e+00  1.2152389301983617e+00 8.7935820090128058e-01 0.0000000000000000e+00  1.0350720820361452e+00 7.4970699824180220e-01 0.0000000000000000e+00  1.0607304330108884e+00 9.0382994275370487e-01 0.0000000000000000e+00  5.0000000000000744e-01 1.0000000000000012e-01 0.0000000000000000e+00  5.0000000000000588e-01 1.6250775110981872e-02 0.0000000000000000e+00  5.0000000000000477e-01 1.8374922488901849e-01 0.0000000000000000e+00  2.0662280563537094e-01 -1.6765247133396491e-01 0.0000000000000000e+00  2.3602830397637012e-01 -1.0081670399124959e-01 0.0000000000000000e+00  7.0446332012000590e-01 7.0602149887847798e-01 0.0000000000000000e+00  3.8504656258713010e-01 6.3926123958183728e-02 0.0000000000000000e+00  4.8154549233999866e-01 4.5291680405738727e-01 0.0000000000000000e+00  2.2553614737133712e-01 1.5498966867905450e-01 0.0000000000000000e+00  5.7298447562211541e-01 5.8162930180860017e-01 0.0000000000000000e+00  8.3745285457896890e-01 7.9543477076214786e-01 0.0000000000000000e+00  6.4777127085527808e-01 6.9801674520982715e-01 0.0000000000000000e+00  5.8162280563537239e-01 -2.9840552667200156e-02 0.0000000000000000e+00  2.7208710135364012e-01 5.0381859989026181e-02 0.0000000000000000e+00  4.2402903378454826e-01 1.3005889625668546e-01 0.0000000000000000e+00  5.1806100270814415e-01 -1.8185389697573520e-02 0.0000000000000000e+00  1.3955408756467624e+00 7.7169594227833915e-01 0.0000000000000000e+00  9.9775433539379266e-01 8.0440739049664645e-01 0.0000000000000000e+00  1.1632734935544848e+00 8.0715795694927173e-01 0.0000000000000000e+00  1.4956130656905029e+00 8.8584094135529912e-01 0.0000000000000000e+00  4.9944699168811008e-01 9.9828142544490267e-02 0.0000000000000000e+00  5.3344872539805810e-01 1.8917091771228334e-03 0.0000000000000000e+00  4.9997696937027686e-01 9.9992841027817608e-02 0.0000000000000000e+00  5.1556204919941295e-01 1.2503528435563941e-02 0.0000000000000000e+00  4.9999897850088248e-01 9.9999682473009791e-02 0.0000000000000000e+00  9.6685057004210229e-01 8.6597050253195684e-01 0.0000000000000000e+00  1.4073401210125978e+00 8.9774877189938684e-01 0.0000000000000000e+00  1.1677261165945130e+00 9.1176765172994967e-01 0.0000000000000000e+00  1.2580569815932012e+00 9.0493299423612317e-01 0.0000000000000000e+00  4.8769659029651630e-01 9.6174757892508983e-02 0.0000000000000000e+00  1.6933962901586261e+00 8.6955316110752334e-01 0.0000000000000000e+00  5.0080638173549918e-01 1.5470908768437855e-02 0.0000000000000000e+00  4.4559531167258093e-01 7.6543194780931911e-02 0.0000000000000000e+00  8.7178556156216191e-01 7.1481846234057411e-01 0.0000000000000000e+00  4.2146950719688758e-01 -6.4585609645163924e-02 0.0000000000000000e+00  7.0065649270257024e-01 5.3617504563192075e-01 0.0000000000000000e+00  3.6463532155420469e-01 4.5877293914468924e-02 0.0000000000000000e+00  1.5742317116286126e+00 8.7687377370703046e-01 0.0000000000000000e+00  3.1086346075658899e-01 -6.3242932426968559e-02 0.0000000000000000e+00  3.3162280563537044e-01 -1.4671516511170979e-01 0.0000000000000000e+00  4.5662280563537117e-01 -1.0077785888945517e-01 0.0000000000000000e+00  5.0000000000000655e-01 1.5003100443926970e-02 0.0000000000000000e+00  1.5114263351623722e+00 7.5335222322037443e-01 0.0000000000000000e+00  1.3118284180862765e+00 7.8490122558608189e-01 0.0000000000000000e+00  1.0857618092311598e+00 8.2445548929485502e-01 0.0000000000000000e+00  4.9988944699372095e-01 8.9496992484391066e-02 0.0000000000000000e+00  4.9741942617602908e-01 8.8735444760601731e-02 0.0000000000000000e+00  4.9999514289331370e-01 8.9529837108272212e-02 0.0000000000000000e+00  5.0000000000001099e-01 1.5626937777454716e-02 0.0000000000000000e+00  5.0000000000000577e-01 1.5003100443926637e-02 0.0000000000000000e+00  1.0758727719937569e+00 9.0393870678609878e-01 0.0000000000000000e+00  5.4853650202807913e-01 3.9071138137796541e-01 0.0000000000000000e+00  2.7549144361778510e-01 1.1448920999890588e-02 0.0000000000000000e+00  1.2395792186213916e+00 8.0765614346391990e-01 0.0000000000000000e+00  5.0360185885162945e-01 1.4848071583789672e-02 0.0000000000000000e+00  1.5184210422652708e-01 -1.5155959333381921e-01 0.0000000000000000e+00  7.5000000000001135e-02 -4.6874999999999660e-02 0.0000000000000000e+00  1.4708710135363909e-01 1.2527133496044026e-02 0.0000000000000000e+00  4.1317752085783116e-01 -3.1136421571777099e-02 0.0000000000000000e+00  1.7245581959412590e+00 9.2153757079909415e-01 0.0000000000000000e+00  2.9343614104924681e-01 -1.1108920241429848e-01 0.0000000000000000e+00  3.3331180604320587e-01 1.3444515158643414e-01 0.0000000000000000e+00  1.8488601079774050e-01 -2.3751248718009703e-02 0.0000000000000000e+00  2.9392103024832933e-01 2.6737748366527053e-01 0.0000000000000000e+00  1.3139194545007065e+00 8.9503144519787536e-01 0.0000000000000000e+00  1.9117519928862040e-01 -9.5522342656884959e-02 0.0000000000000000e+00  2.5000000000000158e-02 3.1250000000001398e-03 0.0000000000000000e+00  1.2358687847587981e-01 1.1633612420163791e-01 0.0000000000000000e+00  4.9029033784546081e-02 3.2955731919414916e-04 0.0000000000000000e+00  1.5744695206331052e-01 1.1900596104182011e-01 0.0000000000000000e+00  1.5125489420577848e-01 -3.6654978753047034e-04 0.0000000000000000e+00  1.2978070140884229e-01 -1.1718653111127268e-01 0.0000000000000000e+00  2.5000000000000222e-01 -3.2968459333381675e-02 0.0000000000000000e+00  1.1173160838517782e+00 9.2763851934176722e-01 0.0000000000000000e+00  2.7684160569425670e-01 1.9890035063740799e-01 0.0000000000000000e+00  5.6874622761424398e-01 5.5973163245201418e-01 0.0000000000000000e+00  2.8364544598415331e-01 2.1364594241072790e-01 0.0000000000000000e+00  3.8469257237826787e-01 3.4228535462505533e-01 0.0000000000000000e+00  5.5543439237939840e-01 5.8168062100818896e-01 0.0000000000000000e+00  4.0186035720910318e-01 3.8676781738765459e-01 0.0000000000000000e+00  3.7642023917418493e-01 -1.0338063554071085e-01 0.0000000000000000e+00  4.8628869468075259e-01 -5.9979502004168933e-02 0.0000000000000000e+00  4.6326245725141968e-01 -2.2745836210203072e-02 0.0000000000000000e+00  4.9792973337428481e-01 -1.2340315695803071e-02 0.0000000000000000e+00  1.8750984950309244e-01 -1.2495581130221986e-01 0.0000000000000000e+00  1.2387645062696744e+00 9.2641832963323090e-01 0.0000000000000000e+00  1.3602129286875693e+00 9.2519813992469802e-01 0.0000000000000000e+00  1.4816613511054673e+00 9.2397795021616280e-01 0.0000000000000000e+00  1.6031097735233604e+00 9.2275776050762937e-01 0.0000000000000000e+00  9.9586766143388150e-01 9.2885870905030066e-01 0.0000000000000000e+00  8.7441923901598562e-01 9.3007889875883520e-01 0.0000000000000000e+00  5.0020829723523241e-01 1.5742507646047545e-02 0.0000000000000000e+00  4.9999973388533192e-01 1.2093722350189801e-01 0.0000000000000000e+00  1.4566920709457505e+00 7.8179234294779854e-01 0.0000000000000000e+00  5.1596235435094540e-01 5.2497020650165682e-01 0.0000000000000000e+00  9.5192848450167722e-01 8.7000796531610602e-01 0.0000000000000000e+00  2.1495544758125831e-01 -1.3577209648973543e-01 0.0000000000000000e+00  2.6739467238342252e-01 -6.1416923448636883e-02 0.0000000000000000e+00  4.6646836718586704e-01 4.4232703351348784e-01 0.0000000000000000e+00  1.6110378690328131e+00 8.6080529671148731e-01 0.0000000000000000e+00  4.4114448215881585e-01 2.5672236466827214e-01 0.0000000000000000e+00  2.5010768496376262e-01 6.0055964836386450e-02 0.0000000000000000e+00  1.3836048593088987e-01 -2.5058674787792511e-02 0.0000000000000000e+00  4.3289692653570994e-01 -8.7050747937199260e-02 0.0000000000000000e+00  4.9999984721898849e-01 6.3359666620086463e-02 0.0000000000000000e+00  1.4623576678882531e+00 7.2651954835785160e-01 0.0000000000000000e+00  1.5372246978954354e+00 6.7017383722142809e-01 0.0000000000000000e+00  1.5822664099359882e+00 7.0258663788629938e-01 0.0000000000000000e+00  1.5628830488701775e+00 8.2429678173333465e-01 0.0000000000000000e+00  1.5950955854233599e+00 7.7964811014224911e-01 0.0000000000000000e+00  5.0012230921403134e-01 1.5330424967823610e-02 0.0000000000000000e+00  3.6522630806476969e-01 -3.8932218342826799e-02 0.0000000000000000e+00  7.1694282153950806e-01 6.9614412299213935e-01 0.0000000000000000e+00  8.2401186984949881e-01 8.1294767856108707e-01 0.0000000000000000e+00  7.0091867402891594e-01 7.3521036368687931e-01 0.0000000000000000e+00  5.5365743227077158e-01 5.3010830566114098e-01 0.0000000000000000e+00  6.1530753953241824e-01 6.4921160313417436e-01 0.0000000000000000e+00  1.3785836689503719e-01 5.7183538210937246e-02 0.0000000000000000e+00  1.4582462879192198e-01 2.4138177735879784e-02 0.0000000000000000e+00  1.1817052241256947e+00 9.0366754696085427e-01 0.0000000000000000e+00  1.4179983114836761e+00 8.8033577157260257e-01 0.0000000000000000e+00  1.3441074212209223e+00 9.1155975148406299e-01 0.0000000000000000e+00  3.5000000000000087e-01 -3.9057655556359707e-03 0.0000000000000000e+00  1.5853643440819016e+00 9.0029812799298903e-01 0.0000000000000000e+00  1.4820733450380845e+00 9.0131292890679260e-01 0.0000000000000000e+00  1.2423272893221515e+00 9.1388580078435522e-01 0.0000000000000000e+00  5.1687348008163903e-01 7.7847856514603249e-04 0.0000000000000000e+00  4.7893854058573493e-01 4.6684533455472754e-01 0.0000000000000000e+00  2.3787280563537186e-01 -1.6476189477840064e-01 0.0000000000000000e+00  1.6821885773730521e+00 8.9066309392183696e-01 0.0000000000000000e+00  5.0531632600851140e-01 1.4727757959896670e-02 0.0000000000000000e+00  1.0221033087140201e+00 9.0994787821680700e-01 0.0000000000000000e+00  1.0916429819067417e+00 9.0609739498833108e-01 0.0000000000000000e+00  1.2282077035204870e+00 7.1911732092627367e-01 0.0000000000000000e+00  1.2549418182588210e+00 7.6082920341677907e-01 0.0000000000000000e+00  7.1173312263082034e-01 6.8449130886864995e-01 0.0000000000000000e+00  8.6408164724781578e-01 8.0491176105697682e-01 0.0000000000000000e+00  9.4209324338267963e-01 8.0749778344973044e-01 0.0000000000000000e+00  4.6201451689227491e-01 1.5574974303131017e-01 0.0000000000000000e+00  4.6942435168785668e-01 1.2255641619639895e-01 0.0000000000000000e+00  2.2794659824467778e-01 -1.0219869829819121e-02 0.0000000000000000e+00  3.2566708051668181e-01 4.3513984486033226e-02 0.0000000000000000e+00  4.0616288884837776e-01 4.8332283362487426e-02 0.0000000000000000e+00  7.8649478887757751e-01 6.6452893294098103e-01 0.0000000000000000e+00  1.5000000000000055e-01 -7.4531153111127180e-02 0.0000000000000000e+00  3.5201063542763911e-01 3.4900837260491374e-01 0.0000000000000000e+00  4.5000000000000240e-01 1.2656928222109082e-02 0.0000000000000000e+00  2.6770968411125051e-01 -5.2410000243453068e-02 0.0000000000000000e+00  4.9613344106300961e-01 1.8026224815982178e-01 0.0000000000000000e+00  6.9955719801476890e-01 4.1293449656309794e-01 0.0000000000000000e+00  8.7798095496652795e-01 6.4560674496637371e-01 0.0000000000000000e+00  7.3385814933115856e-01 8.1435286941146467e-01 0.0000000000000000e+00  3.1007258446136726e-01 6.6838166431315196e-02 0.0000000000000000e+00  2.0579010348446564e-01 1.0171329822297177e-01 0.0000000000000000e+00  8.8827789365554000e-01 8.3887431207616081e-01 0.0000000000000000e+00  3.0037280563537189e-01 -1.5429324166727373e-01 0.0000000000000000e+00  5.0197408451084646e-01 1.5504536440306686e-02 0.0000000000000000e+00  1.2068467732832489e+00 7.7075052149911982e-01 0.0000000000000000e+00  3.2350163110134411e-01 -1.1796593131244740e-01 0.0000000000000000e+00  4.9999152712153566e-01 1.2924801446270071e-01 0.0000000000000000e+00  5.0000000000000533e-01 1.8374922488901821e-01 0.0000000000000000e+00  1.0432384091798561e+00 7.8875376639662031e-01 0.0000000000000000e+00  9.9644495773927677e-01 7.5582493370490789e-01 0.0000000000000000e+00  1.0915061734906617e+00 7.7850152392200389e-01 0.0000000000000000e+00  4.9980228528118525e-01 1.2918909452255067e-01 0.0000000000000000e+00  5.0000000000000477e-01 1.8374922488901835e-01 0.0000000000000000e+00  4.9993587470157158e-01 1.3991797437587281e-01 0.0000000000000000e+00  4.9550171177244173e-01 1.2779940155529221e-01 0.0000000000000000e+00  5.0000000000000244e-01 1.8374922488901843e-01 0.0000000000000000e+00  4.9853089490946800e-01 1.3947277321857660e-01 0.0000000000000000e+00  4.9999724458794786e-01 1.3993706653098140e-01 0.0000000000000000e+00  3.8604355067682233e-01 1.0667668456514481e-01 0.0000000000000000e+00  4.1405082257539461e-01 3.7572530245363217e-01 0.0000000000000000e+00  2.3410161824591252e-01 3.6234188629821001e-02 0.0000000000000000e+00  1.7537280563537153e-01 -1.6898054788952763e-01 0.0000000000000000e+00  6.1243995612618063e-01 5.9814979262096568e-01 0.0000000000000000e+00  4.0163603462779962e-01 8.4138339478876459e-02 0.0000000000000000e+00  5.4614634395292627e-01 -1.5193085772489174e-02 0.0000000000000000e+00  5.5037280563537327e-01 -4.9918629222763689e-02 0.0000000000000000e+00  1.0376165929032817e+00 9.0120259393444868e-01 0.0000000000000000e+00  5.0000000000000366e-01 1.6250775110981743e-02 0.0000000000000000e+00  5.1688623829485025e-01 1.0774241319371398e-02 0.0000000000000000e+00  5.0000000000000466e-01 1.6250775110981868e-02 0.0000000000000000e+00  2.5212518952164475e-01 -1.3303719353782831e-01 0.0000000000000000e+00  3.1550190776848902e-01 2.6980192269513725e-01 0.0000000000000000e+00  5.0632837394371699e-01 -1.0237888441089907e-03 0.0000000000000000e+00  5.1434048565235646e-01 -4.2503134946491911e-02 0.0000000000000000e+00  7.9458828349285959e-01 8.1640654182422290e-01 0.0000000000000000e+00  6.1287280563537139e-01 -8.1999761116364114e-03 0.0000000000000000e+00  1.3799038294174444e+00 9.0609889911284758e-01 0.0000000000000000e+00  2.0202217802176320e-01 9.1010260705011708e-03 0.0000000000000000e+00  9.7490624653606514e-02 -1.2023222528552594e-02 0.0000000000000000e+00  8.0617909136723187e-01 6.1523936511181065e-01 0.0000000000000000e+00  1.3582340430952766e+00 8.0560533321893346e-01 0.0000000000000000e+00  1.4083745516827029e+00 8.4876852358575350e-01 0.0000000000000000e+00  1.3054619521142243e+00 7.0688145000006231e-01 0.0000000000000000e+00  1.3314911404952814e+00 7.4419962493229141e-01 0.0000000000000000e+00  9.0488867644443061e-01 8.6330091390618291e-01 0.0000000000000000e+00  1.3311203030889667e+00 8.6100439451196553e-01 0.0000000000000000e+00  1.1722271788051513e+00 9.1826036743862494e-01 0.0000000000000000e+00  1.3395348704713139e+00 8.8464331625429615e-01 0.0000000000000000e+00  2.7445171648531203e-01 -9.4660275118455595e-02 0.0000000000000000e+00  9.9823354485467286e-01 8.8526676302082430e-01 0.0000000000000000e+00  1.6457235794510328e+00 8.9903808208461289e-01 0.0000000000000000e+00  2.2024278356308932e-01 -6.6124641644437571e-02 0.0000000000000000e+00  4.7225640660173718e-01 8.0954503521154020e-02 0.0000000000000000e+00  9.4128721655051850e-01 7.5287145649776854e-01 0.0000000000000000e+00  1.2538660544952300e+00 8.7324026543817612e-01 0.0000000000000000e+00  4.8882417773202869e-01 -9.4777490953195341e-03 0.0000000000000000e+00  5.4137490879584316e-01 7.5993889897535173e-03 0.0000000000000000e+00  5.0000000000000444e-01 1.5003100443926574e-02 0.0000000000000000e+00  1.8088339405484727e-01 