<?xml version="1.0"?>
<VTKFile type="UnstructuredGrid"  version="0.1"  >
<UnstructuredGrid>
<Piece  NumberOfPoints="1412" NumberOfCells="2594">
<Points>
<DataArray  type="Float64"  NumberOfComponents="3"  format="ascii">0.75 0.25 0  0 0 0  2 -0.25 0  4 -0.25 0  4 0.15 0  2 0.15 0  1 1 0  4 0.75 0  3 0.75 0  0.4 4.25 0  0.4 2.25 0  1 2.25 0  1 4.25 0  0 1.25 0  0 4.25 0  0.7844645405527362 -0.09805806756909202 0  0.6137213819618628 1.028734960217927 0  2 0.875 0  0 2.75 0  3 0.15 0  0.4 3.25 0  0 2 0  3 -0.25 0  0 3.5 0  1 3.25 0  0.4 2.75 0  0.4 3.75 0  1.375 0.2 0  1.5 0.9375 0  1.392232270276368 -0.174029033784546 0  0.5068606909809314 1.639367480108963 0  1 1.625 0  0 0.625 0  2.5 0.8125 0  2.5 0.15 0  2.5 -0.25 0  3.5 0.15 0  3.5 0.75 0  3.5 -0.25 0  1 3.75 0  1 2.75 0  1.7145 0.5125 0  0.875 0.625 0  0.6818606909809314 0.6393674801089633 0  0 0.3125 0  0.375 0.125 0  0.3922322702763681 -0.04902903378454601 0  2.20859375 0.5125 0  1 1.9375 0  0.4534303454904657 1.944683740054482 0  2.7125 0.48125 0  0.7 2.5 0  0.7 3 0  0.7 3.5 0  3.25 0.45 0  4 0.45 0  0.7 4.25 0  0 3.125 0  0 3.875 0  0 2.375 0  0 1.625 0  1.332818232232114 0.5864926725030316 0  0.3378197929393335 0.7798062525453338 0  1 1.3125 0  0.5602910364713971 1.334051220163445 0  1.696116135138184 -0.212014516892273 0  1.6875 0.175 0  1.088348405414552 -0.136043550676819 0  1.0625 0.225 0  0.3028046989705612 0.4493593979411225 0  0.2945258134591954 1.105154311655302 0  3.25 -0.25 0  3.25 0.15 0  2.25 -0.25 0  2.25 0.15 0  2.75 0.15 0  2.75 -0.25 0  3.75 0.15 0  3.75 -0.25 0  3.671666666666667 0.4694444444444444 0  0.2589164270741047 1.438643948722094 0  0.7 2.145166714796825 0  0 0.9375 0  0.7 3.91 0  0.7253198680176475 1.834931121293564 0  0.2072152550168758 1.8125 0  0.4 2.5 0  0.4 4 0  0.2 4.25 0  0.4 3 0  2.978708410351202 0.4219096580406655 0  0.9375 0.8125 0  1.25 0.96875 0  0.7502969578784774 1.524635541612859 0  2.455311434009706 0.4124535140315094 0  2.75 0.78125 0  2.25 0.84375 0  1.75 0.90625 0  3.25 0.75 0  0.6541666666666667 3.25 0  0.4 3.5 0  1 3.5 0  1 3 0  0.6541666666666667 2.75 0  1 2.5 0  3.75 0.75 0  1 4 0  1.961546875 0.4133927801724138 0  0.5625 0.1875 0  0.8174152191745825 1.15625 0  1.552306387958494 0.6972696358049337 0  1.870683974874859 -0.04999999999999996 0  0.2 2.875 0  0 2.5625 0  3.625 -0.05000000000000002 0  2.625 -0.05000000000000002 0  2.125 -0.05000000000000002 0  3.125 -0.05000000000000002 0  0 2.1875 0  0 3.3125 0  0.2379342451848873 2.06430520770418 0  0 3.6875 0  3.375 -0.04999999999999996 0  2.375 -0.04999999999999996 0  2.875 -0.04999999999999996 0  4 -0.04999999999999999 0  0.7159303454904657 0.4446837400544816 0  0.8125 0.4375 0  2.013450691719193 0.6414742867759148 0  1.54475 0.35625 0  1.093630070693199 0.483537533137437 0  1.565637398857925 -0.02131620613321533 0  1.16404853081492 0.7500279383701602 0  0.2 3.40625 0  0.2146484375 2.625 0  1.206056452554537 0.05383065693170622 0  0.9555245967416393 0.03589418094100619 0  0 4.0625 0  0.5100687635309494 0.5089809280083913 0  3.464749770917037 0.3747914757641974 0  0.1875 0.0625 0  0 0.15625 0  0.196116135138184 -0.02451451689227301 0  0.21953125 3.125 0  0.21953125 3.875 0  0.21953125 2.375 0  2.354296875 0.6625 0  0.7833333333333332 3.705 0  0.214169921875 3.6280625 0  0.2252086746776465 0.2618739759670606 0  2.544561424798298 0.5939363348115076 0  1.277820947095264 0.3849420818532812 0  1.750557251695503 0.7077244414344372 0  0.647791036471397 0.8340512201634449 0  0.5883484054145521 -0.07354355067681902 0  2.85625 0.615625 0  2.621650934450685 0.3057451552580515 0  2.125 0.3027522521052893 0  0.85 4.25 0  0.85 3.375 0  0.85 2.625 0  0.8270833333333334 2.8475 0  0.85 3.125 0  0.85 2.375 0  3.842538811430832 0.5729490095256931 0  3.375 0.6 0  3.125 0.6 0  3.828661202185792 0.338615664845173 0  0.55 3.625 0  0.55 4.25 0  0.55 2.375 0  1.363623660677335 0.7871375941722774 0  3.128431374479478 0.3 0  0.1929412862869544 1.620023083277969 0  0.2227182712395543 4.063174616991644 0  3.8125 -0.07187500000000002 0  0 2.9375 0  0 1.8125 0  0 1.4375 0  0.8133411116394247 1.345814815205753 0  0 0.78125 0  0.1692468659890125 0.8593749999999999 0  0.8182203389830509 4.060932203389831 0  0.5817796610169491 4.060932203389831 0  0.2034805718779232 0.6269626436295637 0  0 0.46875 0  0.5040168377423664 0.6953209397458892 0  0.427884261293323 0.9573456960439302 0  0.4482309832076171 0.333879585459108 0  1.384457069573941 0.009606704500686097 0  0.8205977886701885 1.998858262592905 0  0.8075934850669365 0.9599688383110212 0  1.84375 0.1625 0  1.789189396064148 0.3412166376894034 0  3.628822448864718 0.2896117270742661 0  0.7058684175447372 0.06989474736578863 0  0.55 2.601701388888889 0  0.55 2.898298611111111 0  0.55 3.398298611111111 0  0.55 3.101701388888889 0  2.875 0.2770004475218674 0  0.3734693975497718 1.282229726420018 0  0.1867744097780238 1.265654702790875 0  0.5870062092166299 1.181393090190686 0  2.302487304197914 0.3204723689992426 0  0.3452299103338084 1.705497186093388 0  0.8299771304286836 1.687202406972237 0  1.500123396257726 0.5278323820372941 0  0.8646666666666667 3.8575 0  0.5670731707317074 3.797987804878049 0  0.1439976388311685 1.027063397708053 0  1 1.46875 0  2.1820703125 0.6840283203124999 0  3.625 0.75 0  3.545470236735937 0.5850248027200528 0  0.90625 0.2375 0  0.6656856610972064 1.681747559441621 0  0.4801455182356986 1.792025610081722 0  1.874233836105559 0.5532088940043913 0  0.375293528176631 1.548387496016627 0  0.6270177093588823 1.98305923062607 0  0.4267151727452329 2.097341870027241 0  0.8438654442121505 2.215138533054581 0  0.5561345557878495 2.215138533054581 0  0.3723187820182575 0.5977753853569071 0  1.039960307048331 0.640268466388115 0  1.21875 0.2125 0  1.53125 0.1875 0  1 1.15625 0  1 1.78125 0  1 2.09375 0  0 1.09375 0  0.2461711746761648 2.220685512344963 0  3.375 0.15 0  3.318954038331897 0.3026891826382905 0  0.5335758637261643 1.486709350136204 0  0.9950164803020526 0.364268503775658 0  0.7878069036377863 0.7582310321207379 0  1.716021492234477 -0.05840802244373186 0  1.544174202707276 -0.1930217753384095 0  1.24029033784546 -0.1550362922306825 0  0.9364064729836441 -0.1170508091229555 0  1.848058067569092 -0.2310072584461365 0  0.1478568825515178 0.4036884940261091 0  2.70375 0.6346875 0  0.4492581250142201 1.110694784830959 0  1.875 0.890625 0  0.85 3.558462059620596 0  4 0.6 0  4 0.3 0  0.7000000000000001 2.309031881064403 0  0.6035738916244 0.3373546997649752 0  1.125 0.984375 0  0.5041917268176693 0.04992481954699185 0  3.701982061499162 0.6121935674274068 0  3.875 0.15 0  0.1132312835926446 2.277192291397779 0  0.13360451897468 3.753338628304645 0  0.1350881048900136 2.498398403537891 0  0.109765625 3.96875 0  0.109765625 3.03125 0  0.1460203538776797 3.26119824506095 0  1.625 0.921875 0  0.9502765775519859 0.5016623713956873 0  1.8986704624586 0.7407352261164221 0  0.8726049840239235 1.858978239310943 0  0.7109369264890336 1.248787767224887 0  0.1416357965225223 1.948276755947085 0  0.3461241190092494 1.849159179399761 0  0.8385416666666665 2.98625 0  1.915269039022258 0.2820208811141249 0  0.2798274096625894 0.9578280718774481 0  1.18427877012272 0.6021331949588979 0  0.1111120897723949 4.144397104242779 0  0.5053682204524438 0.8377863152691659 0  2.851248058132063 0.4768988796726765 0  3.114386167132671 0.4356461460518435 0  0.1036076275084379 1.723415744683363 0  2.625 0.796875 0  2.354051598765969 0.5169735813093584 0  2.991070519348269 0.6154754327902241 0  0.6552939971749373 1.429343380888152 0  0.8863796639259978 1.546875 0  1.407465955698945 0.3350621857286667 0  1.149723711500617 0.3324838937577083 0  0.1276490591212884 2.14267060172146 0  0.2667869105799955 3.750444595740402 0  2.489858069807724 0.283304479809752 0  2.587104298652666 0.4348941894798088 0  2.095933096936429 0.4358684743350931 0  0.3909613984268937 1.415194979486666 0  0.09411655345431705 1.53125 0  0.2675485767266064 2.498450863444712 0  2.125 0.859375 0  0.5697225869394688 3.929723089466525 0  0.4 4.125 0  1 4.125 0  1.384132786198956 0.4649311550157939 0  0.8390527291285373 0.1142517494209401 0  2.754762457704482 0.3481069152938936 0  2.375 0.15 0  0.1296661521543377 1.391008043261292 0  3.875 -0.25 0  4 -0.15 0  0.1153499750320644 0.5303526175834734 0  0.1244433970036293 0.734048127362056 0  1.757331924502709 0.06508655628385909 0  3.002698407526564 0.2776716585853439 0  0.96875 0.90625 0  1.99784198743743 0.009588742148393475 0  1.981194004740883 -0.1203529968917409 0  0.2723870046498599 3.241465383130515 0  0.6750170765027322 3.124621186247723 0  0.6750170765027322 2.624621186247723 0  0.5270833333333333 3.228531565434845 0  0.7000000000000001 2.870798611111111 0  0.5270833333333333 2.728531565434845 0  0.7168423694779116 3.367710843373494 0  0.1159119721545142 1.155229198287349 0  0.4 3.375 0  1.375 0.953125 0  2.875 0.765625 0  2.375 0.828125 0  1.077434289448007 0.09174140640618206 0  0.2329193726167779 2.998191113467439 0  0.1414740067857984 2.746141589142723 0  0.2708334437768747 2.741608977264837 0  1.062280420017303 0.8229898599942322 0  0.4 3.875 0  1 3.625 0  1 3.875 0  2.875 0.15 0  0.4 3.125 0  3.125 0.15 0  3.125 0.75 0  3.25 0.6229166666666667 0  3.625 0.15 0  3.375 0.75 0  1 2.875 0  1 2.375 0  0.8729166666666667 2.5 0  1 2.625 0  1 3.125 0  0.8729166666666667 3.25 0  1 3.375 0  2.125 0.15 0  2.625 0.15 0  0.4 2.375 0  0.4 3.625 0  0.4 2.875 0  0.4 2.625 0  2.75 -0.1109375 0  2.76375 0.01953125 0  2.5 0.01093750000000002 0  2.48625 -0.11953125 0  2.375 -0.25 0  2.25 -0.1109375 0  2.26375 0.01953125 0  3.5 0.01093750000000002 0  3.48625 -0.11953125 0  3.375 -0.25 0  3.25 0.01093750000000002 0  3.23625 -0.11953125 0  3.125 -0.25 0  3 0.01093750000000002 0  2.98625 -0.11953125 0  2.875 -0.25 0  2.125 -0.25 0  2.625 -0.25 0  3.625 -0.25 0  3.875 0.75 0  0.1322554110656191 3.521936543606654 0  0.5953976216078809 1.85539306008074 0  0.1276032982342497 0.1770815964684993 0  1.67408885746268 0.8067733597014416 0  0.65395471230732
[...]
<PointData  Vectors="f_161"> 
<DataArray  type="Float64"  Name="f_161"  NumberOfComponents="3" format="ascii">1.0000000000000160e-01 -9.9999999999999700e-02 0.0000000000000000e+00  3.3477092740712847e-17 -1.0571713497067215e-17 0.0000000000000000e+00  5.0000000000000377e-01 9.9999999999999811e-02 0.0000000000000000e+00  5.0000000000000611e-01 9.9999999999999659e-02 0.0000000000000000e+00  5.0000000000000733e-01 1.0000000000000023e-01 0.0000000000000000e+00  5.0000000000000278e-01 1.0000000000000031e-01 0.0000000000000000e+00  4.9326650447206190e-16 2.1263802684191425e-15 0.0000000000000000e+00  5.0000000000000633e-01 1.0000000000000152e-01 0.0000000000000000e+00  5.0000000000000333e-01 1.0000000000000145e-01 0.0000000000000000e+00  1.0000000000000051e-01 1.0000000000000080e+00 0.0000000000000000e+00  1.0000000000000041e-01 1.0000000000000047e+00 0.0000000000000000e+00  1.0000000000000175e-01 1.0000000000000044e+00 0.0000000000000000e+00  1.0000000000000163e-01 1.0000000000000060e+00 0.0000000000000000e+00  1.0000000000000005e-01 1.0000000000000020e+00 0.0000000000000000e+00  1.0000000000000003e-01 1.0000000000000060e+00 0.0000000000000000e+00  1.9611613513818524e-01 -8.4539962584061872e-03 0.0000000000000000e+00  4.8958217829773347e-03 3.2830422811986137e-01 0.0000000000000000e+00  2.5000000000000333e-01 1.4983551663599450e-15 0.0000000000000000e+00  1.0000000000000003e-01 1.0000000000000044e+00 0.0000000000000000e+00  5.0000000000000500e-01 1.0000000000000024e-01 0.0000000000000000e+00  1.0000000000000089e-01 1.0000000000000051e+00 0.0000000000000000e+00  1.0000000000000009e-01 1.0000000000000038e+00 0.0000000000000000e+00  5.0000000000000633e-01 9.9999999999999742e-02 0.0000000000000000e+00  1.0000000000000016e-01 1.0000000000000051e+00 0.0000000000000000e+00  1.0000000000000157e-01 1.0000000000000044e+00 0.0000000000000000e+00  1.0000000000000053e-01 1.0000000000000038e+00 0.0000000000000000e+00  1.0000000000000053e-01 1.0000000000000044e+00 0.0000000000000000e+00  3.0000000000000188e-01 2.5000000000000251e-02 0.0000000000000000e+00  1.2500000000000266e-01 -1.2499999999998701e-02 0.0000000000000000e+00  3.4805806756909402e-01 2.7303921206125875e-02 0.0000000000000000e+00  1.5160703456641406e-02 6.6415211405993235e-01 0.0000000000000000e+00  1.0000000000000217e-01 5.0000000000000377e-01 0.0000000000000000e+00  1.0000000000000002e-01 5.0000000000000100e-01 0.0000000000000000e+00  3.7500000000000444e-01 3.7500000000000970e-02 0.0000000000000000e+00  5.0000000000000455e-01 1.0000000000000027e-01 0.0000000000000000e+00  5.0000000000000455e-01 9.9999999999999534e-02 0.0000000000000000e+00  5.0000000000000666e-01 1.0000000000000013e-01 0.0000000000000000e+00  5.0000000000000544e-01 1.0000000000000095e-01 0.0000000000000000e+00  5.0000000000000777e-01 9.9999999999999770e-02 0.0000000000000000e+00  1.0000000000000234e-01 1.0000000000000060e+00 0.0000000000000000e+00  1.0000000000000145e-01 1.0000000000000064e+00 0.0000000000000000e+00  2.9636375187457586e-01 2.9901087697831487e-02 0.0000000000000000e+00  7.5000000000001232e-02 -4.9999999999998608e-02 0.0000000000000000e+00  3.7287207434849257e-02 1.1415211405993030e-01 0.0000000000000000e+00  6.2500000000000083e-02 2.5000000000000050e-01 0.0000000000000000e+00  5.0000000000000384e-02 -1.2499999999999740e-02 0.0000000000000000e+00  9.8058067569092383e-02 -1.1919305821510748e-02 0.0000000000000000e+00  3.9042451976333825e-01 5.4827643148694663e-02 0.0000000000000000e+00  1.1250000000000115e-01 7.5000000000000155e-01 0.0000000000000000e+00  4.8258549869608633e-02 8.3207605702996990e-01 0.0000000000000000e+00  4.6025033609584132e-01 8.0482063277806118e-02 0.0000000000000000e+00  9.7614361788670362e-02 9.7922175130414002e-01 0.0000000000000000e+00  9.9825109744958784e-02 9.9847222191287555e-01 0.0000000000000000e+00  9.9987229884590120e-02 9.9988839513090833e-01 0.0000000000000000e+00  4.9618833750938496e-01 9.8037429969634243e-02 0.0000000000000000e+00  5.0000000000000588e-01 1.0000000000000051e-01 0.0000000000000000e+00  1.0000000000000092e-01 1.0000000000000062e+00 0.0000000000000000e+00  9.9999999999999978e-02 1.0000000000000027e+00 0.0000000000000000e+00  1.0000000000000007e-01 1.0000000000000053e+00 0.0000000000000000e+00  1.0000000000000009e-01 1.0000000000000038e+00 0.0000000000000000e+00  1.0000000000000012e-01 1.0000000000000042e+00 0.0000000000000000e+00  1.8417817205256334e-01 -3.1291194499668299e-03 0.0000000000000000e+00  6.0220245859350367e-02 3.9417943863811616e-01 0.0000000000000000e+00  6.2500000000001416e-02 2.5000000000000266e-01 0.0000000000000000e+00  7.0646076109724286e-04 4.9622817108989709e-01 0.0000000000000000e+00  4.2402903378454782e-01 5.9034690436895125e-02 0.0000000000000000e+00  4.0000000000000230e-01 6.8750000000000339e-02 0.0000000000000000e+00  2.7208710135363945e-01 4.8076923076921354e-03 0.0000000000000000e+00  2.0000000000000159e-01 -3.1249999999999764e-02 0.0000000000000000e+00  6.3536440622310994e-02 2.1152813743400575e-01 0.0000000000000000e+00  5.7401916809132779e-02 6.0904720752322972e-01 0.0000000000000000e+00  5.0000000000000633e-01 9.9999999999999672e-02 0.0000000000000000e+00  5.0000000000000433e-01 1.0000000000000024e-01 0.0000000000000000e+00  5.0000000000000344e-01 9.9999999999999561e-02 0.0000000000000000e+00  5.0000000000000566e-01 1.0000000000000020e-01 0.0000000000000000e+00  5.0000000000000522e-01 1.0000000000000024e-01 0.0000000000000000e+00  5.0000000000000511e-01 9.9999999999999728e-02 0.0000000000000000e+00  5.0000000000000588e-01 1.0000000000000026e-01 0.0000000000000000e+00  5.0000000000000355e-01 9.9999999999999770e-02 0.0000000000000000e+00  4.9959245377268274e-01 9.9789988422088999e-02 0.0000000000000000e+00  5.8005635603436197e-02 7.7413882645810683e-01 0.0000000000000000e+00  8.6985058802217963e-02 8.8840716430099231e-01 0.0000000000000000e+00  1.1250000000000022e-01 7.5000000000000133e-01 0.0000000000000000e+00  9.9998536342932196e-02 9.9998720805861208e-01 0.0000000000000000e+00  6.8529626086991535e-02 7.1758172590570779e-01 0.0000000000000000e+00  7.3407097847920780e-02 8.9745953580152060e-01 0.0000000000000000e+00  1.0000000000000052e-01 1.0000000000000051e+00 0.0000000000000000e+00  1.0000000000000098e-01 1.0000000000000064e+00 0.0000000000000000e+00  1.0000000000000045e-01 1.0000000000000073e+00 0.0000000000000000e+00  1.0000000000000053e-01 1.0000000000000067e+00 0.0000000000000000e+00  4.8673586273262354e-01 9.3261031074063555e-02 0.0000000000000000e+00  4.3750000000001274e-02 -2.4999999999998933e-02 0.0000000000000000e+00  6.2500000000002193e-02 -9.3749999999985737e-03 0.0000000000000000e+00  4.6568877574071993e-02 5.1803809152511648e-01 0.0000000000000000e+00  4.4466874429185704e-01 7.5210371586711650e-02 0.0000000000000000e+00  4.3750000000000377e-01 6.5625000000000960e-02 0.0000000000000000e+00  3.1250000000000605e-01 1.5625000000001079e-02 0.0000000000000000e+00  1.8750000000000247e-01 -9.3749999999988010e-03 0.0000000000000000e+00  5.0000000000000477e-01 1.0000000000000159e-01 0.0000000000000000e+00  9.9954063572655197e-02 9.9959899437999622e-01 0.0000000000000000e+00  1.0000000000000081e-01 1.0000000000000082e+00 0.0000000000000000e+00  1.0000000000000199e-01 1.0000000000000084e+00 0.0000000000000000e+00  1.0000000000000157e-01 1.0000000000000049e+00 0.0000000000000000e+00  9.9359871102768171e-02 9.9450202228269891e-01 0.0000000000000000e+00  1.0000000000000128e-01 1.0000000000000049e+00 0.0000000000000000e+00  5.0000000000000899e-01 1.0000000000000091e-01 0.0000000000000000e+00  1.0000000000000142e-01 1.0000000000000033e+00 0.0000000000000000e+00  3.8138417198400032e-01 5.6621749048423181e-02 0.0000000000000000e+00  7.5000000000001107e-02 -4.6874999999999806e-02 0.0000000000000000e+00  2.4738472316640378e-02 2.5320266045624917e-01 0.0000000000000000e+00  2.0444766165355666e-01 4.3550993749432157e-03 0.0000000000000000e+00  4.5615213153402118e-01 8.1170575839500034e-02 0.0000000000000000e+00  9.9955440753439567e-02 9.9985601794859469e-01 0.0000000000000000e+00  1.0000000000000013e-01 1.0000000000000024e+00 0.0000000000000000e+00  4.9999993473746351e-01 9.9999972105400278e-02 0.0000000000000000e+00  4.9983511762736138e-01 9.9929524594476044e-02 0.0000000000000000e+00  4.9200616494011606e-01 9.6582416384154532e-02 0.0000000000000000e+00  4.9999667122130909e-01 9.9998577209138212e-02 0.0000000000000000e+00  1.0000000000000007e-01 1.0000000000000040e+00 0.0000000000000000e+00  9.9999999999999992e-02 1.0000000000000047e+00 0.0000000000000000e+00  8.2788091123950844e-02 9.4224230405987797e-01 0.0000000000000000e+00  1.0000000000000006e-01 1.0000000000000038e+00 0.0000000000000000e+00  4.9999953451133577e-01 9.9999801040242087e-02 0.0000000000000000e+00  4.9884679002497534e-01 9.9507019598712595e-02 0.0000000000000000e+00  4.9997670341382189e-01 9.9990042560690148e-02 0.0000000000000000e+00  5.0000000000000822e-01 9.9999999999999936e-02 0.0000000000000000e+00  6.4853427853264409e-02 7.0760570299653342e-03 0.0000000000000000e+00  9.3750000000000805e-02 -7.4999999999999775e-02 0.0000000000000000e+00  3.1974797783090925e-01 3.0263597720378631e-02 0.0000000000000000e+00  3.0243125127878234e-01 3.1873022847965962e-02 0.0000000000000000e+00  1.5198628987718579e-01 -2.7496724967388680e-02 0.0000000000000000e+00  3.7743814089590039e-01 4.8143199036412197e-02 0.0000000000000000e+00  1.0323611222071857e-01 -1.5362329854523994e-02 0.0000000000000000e+00  9.9999306856876358e-02 9.9999776027817322e-01 0.0000000000000000e+00  9.9680244083305183e-02 9.9896696348264824e-01 0.0000000000000000e+00  2.7095670939400041e-01 4.1596080441888049e-03 0.0000000000000000e+00  2.0771512304585324e-01 -2.1421594257784286e-02 0.0000000000000000e+00  1.0000000000000012e-01 1.0000000000000067e+00 0.0000000000000000e+00  5.7848397439210004e-02 1.4184922496550018e-01 0.0000000000000000e+00  4.9888333192351941e-01 9.9425343473638170e-02 0.0000000000000000e+00  2.5000000000000338e-02 3.1250000000000730e-03 0.0000000000000000e+00  3.4375000000000044e-02 1.2500000000000036e-01 0.0000000000000000e+00  4.9029033784546004e-02 -7.8827298338323155e-03 0.0000000000000000e+00  9.9993629981477275e-02 9.9997941692384262e-01 0.0000000000000000e+00  9.9999982531947543e-02 9.9999994355628896e-01 0.0000000000000000e+00  9.7775034692640470e-02 9.9280596236562102e-01 0.0000000000000000e+00  3.7687448342464397e-01 4.4430154757703913e-02 0.0000000000000000e+00  9.9996037746632863e-02 9.9996536359737220e-01 0.0000000000000000e+00  9.9999877666213238e-02 9.9999960470846494e-01 0.0000000000000000e+00  5.2342936013350508e-02 1.2414707816091984e-01 0.0000000000000000e+00  4.2219409632686344e-01 6.2804716096641344e-02 0.0000000000000000e+00  2.2308372014550445e-01 -1.4076041488318689e-03 0.0000000000000000e+00  2.4552596033227242e-01 1.1547447495630487e-02 0.0000000000000000e+00  1.7301338744752967e-02 2.2122817108989609e-01 0.0000000000000000e+00  1.4708710135363878e-01 -1.2109727963035392e-02 0.0000000000000000e+00  4.6841879767672201e-01 8.3416300876657218e-02 0.0000000000000000e+00  4.7613087714543040e-01 8.8837422291524040e-02 0.0000000000000000e+00  4.4384869502948671e-01 7.8338452367995692e-02 0.0000000000000000e+00  1.0000000000000087e-01 1.0000000000000062e+00 0.0000000000000000e+00  9.9982712018100814e-02 9.9984861944752679e-01 0.0000000000000000e+00  9.9181634201764596e-02 9.9212190938737554e-01 0.0000000000000000e+00  9.9698257035270701e-02 9.9729338279667767e-01 0.0000000000000000e+00  9.9934398968798993e-02 9.9942267222936287e-01 0.0000000000000000e+00  9.7580956611683325e-02 9.6921038801121029e-01 0.0000000000000000e+00  4.9988794530915487e-01 9.9942242791032851e-02 0.0000000000000000e+00  4.9853289499090675e-01 9.9241227411369981e-02 0.0000000000000000e+00  4.9366165106116444e-01 9.6689294077033069e-02 0.0000000000000000e+00  4.9987195490139208e-01 9.9934043084233967e-02 0.0000000000000000e+00  9.9995255592909726e-02 9.9995855652535381e-01 0.0000000000000000e+00  1.0000000000000092e-01 1.0000000000000016e+00 0.0000000000000000e+00  9.5728579601740277e-02 9.7183866078313774e-01 0.0000000000000000e+00  1.3692411606477059e-01 -7.3538474967566117e-03 0.0000000000000000e+00  4.9574411380230016e-01 9.7833603749322859e-02 0.0000000000000000e+00  7.0613039431385694e-02 8.6730847981506454e-01 0.0000000000000000e+00  9.9999996157886545e-02 9.9999998758515862e-01 0.0000000000000000e+00  4.9999998610243929e-01 9.9999994059884759e-02 0.0000000000000000e+00  1.0000000000000009e-01 1.0000000000000051e+00 0.0000000000000000e+00  1.0000000000000001e-01 1.0000000000000024e+00 0.0000000000000000e+00  1.0000000000000013e-01 1.0000000000000022e+00 0.0000000000000000e+00  4.0701137820986943e-02 3.7612163882307670e-01 0.0000000000000000e+00  1.0937500000000012e-01 6.2500000000000155e-01 0.0000000000000000e+00  8.2686188768269164e-02 5.6136497151905607e-01 0.0000000000000000e+00  9.9999518775283791e-02 9.9999579402355965e-01 0.0000000000000000e+00  9.9999521379562126e-02 9.9999581720896336e-01 0.0000000000000000e+00  7.5351150970972725e-02 3.8118694775518763e-01 0.0000000000000000e+00  8.4375000000000047e-02 3.7500000000000100e-01 0.0000000000000000e+00  4.6134668538352172e-02 2.4329158565708736e-01 0.0000000000000000e+00  4.0817019337046880e-02 4.2916963866460878e-01 0.0000000000000000e+00  6.3035215019653548e-02 7.6080469446732926e-02 0.0000000000000000e+00  3.2550559224177933e-01 2.6951046331586626e-02 0.0000000000000000e+00  8.9991966636647033e-02 8.0449365409311024e-01 0.0000000000000000e+00  2.1902495166143267e-02 1.5204443803727605e-01 0.0000000000000000e+00  4.5000000000000162e-01 8.5937500000000444e-02 0.0000000000000000e+00  3.6964290923763682e-01 5.5416102519482820e-02 0.0000000000000000e+00  4.9965999429903452e-01 9.9824989140808743e-02 0.0000000000000000e+00  1.3803138427387976e-01 -3.8345545024767273e-02 0.0000000000000000e+00  9.8903462857714314e-02 9.9132676547556109e-01 0.0000000000000000e+00  9.9783938982292153e-02 9.9815273176568564e-01 0.0000000000000000e+00  9.9984646970191798e-02 9.9986604224823095e-01 0.0000000000000000e+00  9.9926781695826583e-02 9.9936503792209863e-01 0.0000000000000000e+00  4.9008028109479995e-01 9.5098189784224421e-02 0.0000000000000000e+00  3.8915545490396893e-02 6.2348065086431825e-01 0.0000000000000000e+00  7.1944968627801517e-02 7.8088570764176157e-01 0.0000000000000000e+00  4.7069080735917193e-04 4.1226619960487892e-01 0.0000000000000000e+00  4.5338694870803053e-01 8.0494213161405273e-02 0.0000000000000000e+00  4.8184951961739608e-02 7.9257703036170213e-01 0.0000000000000000e+00  7.3577434558949092e-02 5.9764387895428350e-01 0.0000000000000000e+00  2.4081891718754139e-01 1.3367060261248575e-02 0.0000000000000000e+00  9.9998722685512992e-02 9.9998883468067989e-01 0.0000000000000000e+00  9.9997936969407036e-02 9.9998197308407932e-01 0.0000000000000000e+00  8.5006694522263004e-02 6.9344358361747094e-01 0.0000000000000000e+00  8.4375000000000477e-02 3.7500000000000139e-01 0.0000000000000000e+00  3.3992663010677571e-01 3.2693845953905822e-02 0.0000000000000000e+00  5.0000000000000588e-01 1.0000000000000075e-01 0.0000000000000000e+00  4.9937765522865463e-01 9.9678874294495498e-02 0.0000000000000000e+00  1.5000000000000113e-01 -6.4062499999999648e-02 0.0000000000000000e+00  4.6288095340008592e-02 6.4074581907141126e-01 0.0000000000000000e+00  2.9379176198447068e-02 7.4811408554495173e-01 0.0000000000000000e+00  3.1870160515049523e-01 3.4482960864745539e-02 0.0000000000000000e+00  3.8116102887623640e-02 7.2011279005150108e-01 0.0000000000000000e+00  6.9707139249988490e-02 8.1813941538687052e-01 0.0000000000000000e+00  7.1798824470126796e-02 9.1603802851498639e-01 0.0000000000000000e+00  9.6005312462456527e-02 9.2312259319130874e-01 0.0000000000000000e+00  8.7638663503383327e-02 9.3327732449067147e-01 0.0000000000000000e+00  6.0767246942321079e-02 2.6552598853078996e-01 0.0000000000000000e+00  1.0422337070069303e-01 -2.9365595647461374e-02 0.0000000000000000e+00  2.5000000000000228e-01 -1.5624999999997895e-03 0.0000000000000000e+00  3.5000000000000264e-01 4.8437500000000286e-02 0.0000000000000000e+00  3.4375000000000988e-02 1.2500000000000194e-01 0.0000000000000000e+00  1.0937500000000125e-01 6.2500000000000455e-01 0.0000000000000000e+00  1.0937500000000208e-01 8.7500000000000344e-01 0.0000000000000000e+00  1.0937500000000011e-01 8.7500000000000189e-01 0.0000000000000000e+00  9.2612684314173743e-02 9.7614808103407269e-01 0.0000000000000000e+00  5.0000000000000511e-01 1.0000000000000024e-01 0.0000000000000000e+00  4.9821725882697920e-01 9.9085729350333107e-02 0.0000000000000000e+00  5.6031316441907189e-03 5.8019014257491408e-01 0.0000000000000000e+00  1.5213867393250852e-01 -4.4395710003842979e-02 0.0000000000000000e+00  4.0323306360255558e-02 7.6926536880270888e-02 0.0000000000000000e+00  4.1948219823755450e-01 6.4728883092633929e-02 0.0000000000000000e+00  3.8604355067682183e-01 4.2014988279968545e-02 0.0000000000000000e+00  3.1007258446136615e-01 1.4901489215367084e-02 0.0000000000000000e+00  2.3410161824591225e-01 -2.9774695168990387e-03 0.0000000000000000e+00  4.6201451689227580e-01 7.8363027676905589e-02 0.0000000000000000e+00  6.6732374767430727e-02 2.5470850090111963e-01 0.0000000000000000e+00  4.4246490904874958e-01 7.0657220255560024e-02 0.0000000000000000e+00  3.0171740482411412e-02 4.8746165770638017e-01 0.0000000000000000e+00  2.1875000000000286e-01 -5.4687499999992858e-03 0.0000000000000000e+00  9.9993290221945724e-02 9.9994131501432115e-01 0.0000000000000000e+00  5.0000000000000611e-01 1.0000000000000070e-01 0.0000000000000000e+00  5.0000000000000233e-01 1.0000000000000034e-01 0.0000000000000000e+00  9.3747734950006545e-02 9.4573628178035285e-01 0.0000000000000000e+00  7.1945067865303067e-02 8.4505424533053552e-03 0.0000000000000000e+00  3.1250000000001416e-02 -5.4687499999981357e-03 0.0000000000000000e+00  9.7470125505531205e-02 -2.2588504569106160e-02 0.0000000000000000e+00  4.9976953904618487e-01 9.9881163432385442e-02 0.0000000000000000e+00  5.0000000000000566e-01 1.0000000000000032e-01 0.0000000000000000e+00  9.7029110293214343e-02 9.9023072919247490e-01 0.0000000000000000e+00  9.9999960800748425e-02 9.9999987333724072e-01 0.0000000000000000e+00  9.9292778792845940e-02 9.9770935458256904e-01 0.0000000000000000e+00  9.9999993692492989e-02 9.9999997961884468e-01 0.0000000000000000e+00  9.9990402504049072e-02 9.9996898642516541e-01 0.0000000000000000e+00  9.9998093871126958e-02 9.9999384078652065e-01 0.0000000000000000e+00  1.5625000000000347e-01 -1.1718749999999044e-02 0.0000000000000000e+00  1.1424243976478826e-01 -4.7536352492414100e-02 0.0000000000000000e+00  2.6733377594956403e-01 1.3393535235072539e-02 0.0000000000000000e+00  9.1106391412187918e-02 7.0651496415472592e-01 0.0000000000000000e+00  1.9523638579237730e-02 3.7357685726688694e-01 0.0000000000000000e+00  8.5840237572853736e-02 9.4882859647094364e-01 0.0000000000000000e+00  5.5855478307839254e-02 8.4032222529210410e-01 0.0000000000000000e+00  9.9859671303593620e-02 9.9875686939363917e-01 0.0000000000000000e+00  4.2045196424676762e-01 7.2569807979061110e-02 0.0000000000000000e+00  6.3978916172089298e-02 5.3998123049925839e-01 0.0000000000000000e+00  1.4518193722920777e-01 -1.6317885635627190e-02 0.0000000000000000e+00  9.9999998681252492e-02 9.9999999573879472e-01 0.0000000000000000e+00  3.6282030961367180e-02 3.1513443210981490e-01 0.0000000000000000e+00  4.7457103104228382e-01 8.7150072914150986e-02 0.0000000000000000e+00  4.9263747544142178e-01 9.6222317814099984e-02 0.0000000000000000e+00  8.5560709369328095e-02 9.3943489918238554e-01 0.0000000000000000e+00  4.0625000000000477e-01 5.0781250000001117e-02 0.0000000000000000e+00  4.0991690078271481e-01 6.0522615437340589e-02 0.0000000000000000e+00  4.8565752713449517e-01 9.2432002832605664e-02 0.0000000000000000e+00  2.2919327875713082e-02 5.0120792351643195e-01 0.0000000000000000e+00  7.1811691901207647e-02 4.8086984195881527e-01 0.0000000000000000e+00  2.7163317852496766e-01 1.8271035287593829e-02 0