<?xml version="1.0"?>
<VTKFile type="UnstructuredGrid"  version="0.1"  >
<UnstructuredGrid>
<Piece  NumberOfPoints="2577" NumberOfCells="4963">
<Points>
<DataArray  type="Float64"  NumberOfComponents="3"  format="ascii">-0.4987820251299121 0.03487823687206276 0  -0.4987820251299122 -0.03487823687206242 0  -0.4890738003669028 -0.1039558454088795 0  -0.4698463103929542 -0.1710100716628343 0  -0.4414737964294634 -0.2347357813929454 0  -0.4045084971874738 -0.2938926261462365 0  -0.3596699001693255 -0.3473291852294987 0  -0.307830737662829 -0.3940053768033611 0  -0.2500000000000002 -0.4330127018922192 0  -0.1873032967079561 -0.4635919272833937 0  -0.1209609477998339 -0.4851478631379982 0  -0.05226423163382668 -0.4972609476841367 0  0.01744974835125064 -0.4996954135095479 0  0.08682408883346499 -0.4924038765061041 0  0.1545084971874736 -0.4755282581475768 0  0.2191855733945387 -0.4493970231495835 0  0.2795964517353731 -0.414518786277521 0  0.3345653031794289 -0.3715724127386973 0  0.3830222215594889 -0.3213938048432698 0  0.4240240480782127 -0.2649596321166029 0  0.4567727288213005 -0.2033683215379001 0  0.4806308479691593 -0.1378186779084999 0  0.4951340343707851 -0.06958655048003294 0  0.5 0 0  0.4951340343707852 0.06958655048003272 0  0.4806308479691594 0.1378186779084996 0  0.4567727288213004 0.2033683215379001 0  0.424024048078213 0.2649596321166025 0  0.383022221559489 0.3213938048432696 0  0.3345653031794291 0.3715724127386971 0  0.2795964517353734 0.4145187862775209 0  0.2191855733945387 0.4493970231495835 0  0.1545084971874737 0.4755282581475768 0  0.08682408883346521 0.492403876506104 0  0.01744974835125054 0.4996954135095479 0  -0.05226423163382667 0.4972609476841367 0  -0.1209609477998339 0.4851478631379982 0  -0.187303296707956 0.4635919272833937 0  -0.2499999999999999 0.4330127018922194 0  -0.3078307376628291 0.394005376803361 0  -0.3596699001693256 0.3473291852294986 0  -0.4045084971874737 0.2938926261462366 0  -0.4414737964294634 0.2347357813929455 0  -0.4698463103929542 0.1710100716628344 0  -0.4890738003669028 0.1039558454088797 0  1 0 0  0.9975640502598242 0.0697564737441253 0  0.9902680687415704 0.1391731009600654 0  0.9781476007338057 0.2079116908177593 0  0.9612616959383189 0.2756373558169992 0  0.9396926207859084 0.3420201433256687 0  0.9135454576426009 0.4067366430758002 0  0.882947592858927 0.4694715627858908 0  0.848048096156426 0.5299192642332049 0  0.8090169943749475 0.5877852522924731 0  0.766044443118978 0.6427876096865393 0  0.7193398003386512 0.6946583704589973 0  0.6691306063588582 0.7431448254773941 0  0.6156614753256583 0.788010753606722 0  0.5591929034707468 0.8290375725550417 0  0.5000000000000001 0.8660254037844386 0  0.4383711467890775 0.898794046299167 0  0.374606593415912 0.9271838545667874 0  0.3090169943749475 0.9510565162951535 0  0.2419218955996679 0.9702957262759965 0  0.1736481776669304 0.984807753012208 0  0.1045284632676535 0.9945218953682733 0  0.03489949670250108 0.9993908270190958 0  -0.03489949670250073 0.9993908270190958 0  -0.1045284632676533 0.9945218953682734 0  -0.1736481776669303 0.984807753012208 0  -0.2419218955996678 0.9702957262759965 0  -0.3090169943749473 0.9510565162951536 0  -0.3746065934159121 0.9271838545667874 0  -0.4383711467890775 0.8987940462991669 0  -0.4999999999999998 0.8660254037844387 0  -0.5591929034707467 0.8290375725550417 0  -0.6156614753256583 0.788010753606722 0  -0.6691306063588582 0.7431448254773942 0  -0.7193398003386512 0.6946583704589971 0  -0.7660444431189779 0.6427876096865395 0  -0.8090169943749473 0.5877852522924732 0  -0.848048096156426 0.5299192642332049 0  -0.8829475928589268 0.4694715627858911 0  -0.9135454576426008 0.4067366430758004 0  -0.9396926207859083 0.3420201433256689 0  -0.9612616959383187 0.2756373558169997 0  -0.9781476007338057 0.2079116908177593 0  -0.9902680687415703 0.1391731009600657 0  -0.9975640502598242 0.06975647374412552 0  -1 1.224646799147353e-16 0  -0.9975640502598243 -0.06975647374412483 0  -0.9902680687415703 -0.1391731009600655 0  -0.9781476007338057 -0.2079116908177591 0  -0.9612616959383189 -0.275637355816999 0  -0.9396926207859084 -0.3420201433256687 0  -0.9135454576426011 -0.4067366430757998 0  -0.8829475928589269 -0.4694715627858909 0  -0.8480480961564261 -0.5299192642332048 0  -0.8090169943749476 -0.587785252292473 0  -0.766044443118978 -0.6427876096865393 0  -0.7193398003386511 -0.6946583704589974 0  -0.6691306063588585 -0.743144825477394 0  -0.6156614753256581 -0.7880107536067221 0  -0.5591929034707472 -0.8290375725550414 0  -0.5000000000000004 -0.8660254037844384 0  -0.4383711467890777 -0.8987940462991668 0  -0.3746065934159123 -0.9271838545667873 0  -0.3090169943749476 -0.9510565162951535 0  -0.2419218955996678 -0.9702957262759965 0  -0.1736481776669303 -0.984807753012208 0  -0.1045284632676534 -0.9945218953682734 0  -0.03489949670250165 -0.9993908270190957 0  0.03489949670250128 -0.9993908270190958 0  0.104528463267653 -0.9945218953682734 0  0.17364817766693 -0.9848077530122081 0  0.2419218955996675 -0.9702957262759966 0  0.3090169943749472 -0.9510565162951536 0  0.374606593415912 -0.9271838545667874 0  0.4383711467890774 -0.898794046299167 0  0.5000000000000001 -0.8660254037844386 0  0.5591929034707462 -0.8290375725550421 0  0.6156614753256585 -0.7880107536067218 0  0.6691306063588578 -0.7431448254773946 0  0.7193398003386509 -0.6946583704589976 0  0.7660444431189778 -0.6427876096865396 0  0.8090169943749473 -0.5877852522924734 0  0.8480480961564254 -0.5299192642332058 0  0.8829475928589269 -0.4694715627858908 0  0.913545457642601 -0.4067366430758002 0  0.9396926207859084 -0.3420201433256686 0  0.9612616959383187 -0.2756373558169998 0  0.9781476007338056 -0.2079116908177599 0  0.9902680687415703 -0.1391731009600659 0  0.9975640502598243 -0.06975647374412476 0  -1.1 1.1 0  -1.1 -1.1 0  1.1 -1.1 0  1.1 1.1 0  1.1 0 0  0 1.1 0  -1.1 0 0  0 -1.1 0  1.1 0.55 0  1.1 -0.55 0  -0.55 1.1 0  0.55 1.1 0  -1.1 -0.55 0  -1.1 0.55 0  0.55 -1.1 0  -0.55 -1.1 0  1.1 0.275 0  1.1 -0.275 0  -0.275 1.1 0  0.275 1.1 0  -1.1 -0.275 0  -1.1 0.275 0  0.275 -1.1 0  -0.275 -1.1 0  1.1 0.1375 0  1.1 -0.1375 0  -0.1375 1.1 0  0.1375 1.1 0  -1.1 -0.1375 0  -1.1 0.1375 0  0.1375 -1.1 0  -0.1375 -1.1 0  5.551115123125783e-17 -1.665334536937735e-16 0  -0.8250000000000001 -1.1 0  -0.8250000000000001 1.1 0  0.8250000000000001 1.1 0  0.8250000000000001 -1.1 0  -1.1 -0.8250000000000001 0  1.1 0.8250000000000001 0  1.1 -0.8250000000000001 0  -1.1 0.8250000000000001 0  0.5913683108017449 -0.4620275612009603 0  0.649914963473963 0.3752285791120578 0  0.4606240494606415 0.5895718976940387 0  0.181000513545807 -0.72595340868972 0  -0.5213113466312544 0.5398337023596473 0  -0.748177477268642 3.677613769070831e-16 0  -0.6834941358692682 -0.3043111955291684 0  -0.4823845629070328 -0.574883535856444 0  0.7463460753897364 -0.07844413349737717 0  0.1810005135458073 0.7259534086897199 0  -0.2311995552845864 0.7115590651016113 0  -0.6834941358692682 0.3043111955291685 0  -0.2566714648155866 -0.7051990537991649 0  -0.1676911387756446 0.1862398773501902 0  0.09388033613439234 0.2323619857605368 0  0.25 0.01748170298587768 0  -0.1919787613936808 -0.1610893078793085 0  0.1253052372601464 -0.2170350373890467 0  0.4100151197949826 -0.6310439038757515 0  0.7462612140915066 0.1586227177749866 0  -0.04055708751545835 -0.7729701257972625 0  -0.8714499137803688 0.8714499137803687 0  0.8475624786996654 0.8776766395249775 0  -0.8475624786996656 -0.8776766395249775 0  0.8475624786996647 -0.8776766395249778 0  0.6549247837405074 -0.2646067885805835 0  -0.02452403903941524 0.7022765934528045 0  -0.6971570973421019 0.9595544245098317 0  0.9457715379788133 0.7171099473715343 0  -1.1 0.6875 0  -0.9457715379788133 -0.7171099473715342 0  0.945771537978813 -0.7171099473715348 0  -0.6875 -1.1 0  0.6875 1.1 0  0.6875 -1.1 0  -0.3021034145256841 0.04245786604388235 0  -0.05297525897811498 -0.3004376231321225 0  -0.6493495559083107 -0.4889583914999844 0  -0.4184043150681578 0.6969024203637967 0  1.1 -0.9625000000000001 0  1.1 0.9625000000000001 0  -0.9625000000000001 -1.1 0  0.2887013349030826 -0.1535052227012283 0  -0.056778523551556 0.3220070083626767 0  0.2645279155006937 0.1921907804558624 0  -0.9625000000000001 1.1 0  0.6922516407240482 -0.9346405102034137 0  0.6809472320731365 0.9372434590203537 0  -0.6809472320731367 -0.9372434590203537 0  0.06398867824008851 0.8378070690880577 0  -0.1172078581063797 0.8339772447956406 0  -0.5066579812390133 -0.4168691543844079 0  -0.3616253213577449 0.5474571478967749 0  -0.8028623003113451 -0.1706536500486641 0  -0.6435813133346415 -0.1485334625034662 0  0.3598144769124489 0.7377290042694387 0  0.2791822551364582 0.5985953263881472 0  -0.6535024333571912 0.1389062302773976 0  -0.8110749424437763 0.1957563045411092 0  -0.6949649763371784 0.4687597954466224 0  0.6229628706227364 0.560918288156104 0  -0.9297411857248856 0.7099174590703911 0  0.9625000000000001 1.1 0  0.9625000000000001 -1.1 0  -1.1 -0.9625000000000001 0  -1.1 0.9625000000000001 0  0.7388223103480156 -0.4005571441608962 0  0.8083621931560332 -0.2626527982464245 0  -0.155403738656764 -0.009737379389236772 0  -0.03944258252365207 -0.1479345038122513 0  -0.1124826985140496 -0.6379210831042694 0  0.3343324134502086 -0.7721815783645656 0  0.6086499783436645 0.2271435919934762 0  0.6451580408601226 0.04511384499706936 0  0.5687769439189224 -0.6195906411664603 0  -0.4001602488812527 -0.7525919704505459 0  0.8457217097464697 0.0401248801850398 0  0.7889254854389035 0.307330107167108 0  0.4993777703025682 0.4330411172771549 0  -0.5409883622077387 0.3797819883575305 0  -0.1783153826881871 -0.8337981003274648 0  0.04893952783735875 -0.6491733978417491 0  0.09057598678368259 -0.8453775254020186 0  0.2396424741704135 -0.593135937339345 0  -0.3077981704318665 0.1923336432766373 0  -0.33157036934951 -0.1476246396327481 0  -0.1945783708747696 -0.3026864137415663 0  0.07931900866494118 -0.3509819116997642 0  -1.1 -0.6875 0  -1.1 -0.4125 0  1.1 0.4125 0  1.1 -0.4125 
[...]
<PointData  Vectors="f_150"> 
<DataArray  type="Float64"  Name="f_150"  NumberOfComponents="3" format="ascii">2.7972506668063241e-01 2.7796884559349314e-02 0.0000000000000000e+00  2.9254568552924026e-01 -1.9538868487580592e-03 0.0000000000000000e+00  2.0049307439596603e-01 1.2954760740104541e-02 0.0000000000000000e+00  1.3655968823849465e-01 1.3813830944951847e-02 0.0000000000000000e+00  -2.7638129379625804e-02 -1.4500070928285716e-02 0.0000000000000000e+00  2.0776140453109107e-01 -1.5793572201334585e-01 0.0000000000000000e+00  2.2572579609905716e-01 -2.3843483610633676e-01 0.0000000000000000e+00  4.9240195913949458e-01 -3.3433567732500946e-01 0.0000000000000000e+00  6.1168640353753390e-01 -2.2944972761343355e-01 0.0000000000000000e+00  6.1989332580187950e-01 -5.0449291896166433e-02 0.0000000000000000e+00  5.6015021969384271e-01 1.7675182168005114e-02 0.0000000000000000e+00  5.0228643902280523e-01 5.7717874416967421e-02 0.0000000000000000e+00  4.5078984639414371e-01 6.8970125985826081e-02 0.0000000000000000e+00  3.9075648535145818e-01 1.0206869629893177e-01 0.0000000000000000e+00  3.4438351107233350e-01 1.2262756863639308e-01 0.0000000000000000e+00  3.1542685421890565e-01 1.2470351277034636e-01 0.0000000000000000e+00  2.7026244711265557e-01 1.4191317109755963e-01 0.0000000000000000e+00  2.3281023739180054e-01 1.4356475486932802e-01 0.0000000000000000e+00  2.0476486809047806e-01 1.4909679604134585e-01 0.0000000000000000e+00  3.2145565301709156e-01 4.9277963504518692e-02 0.0000000000000000e+00  2.7758710928790842e-01 6.0465111363603045e-02 0.0000000000000000e+00  1.7875460584983427e-01 1.0655835929435091e-01 0.0000000000000000e+00  1.5317315574364027e-01 9.9078445101149867e-02 0.0000000000000000e+00  2.7871174598078052e-01 1.4114671130358431e-02 0.0000000000000000e+00  2.6302382268841767e-01 4.1176530030099072e-03 0.0000000000000000e+00  3.0513946357520427e-01 -3.9606988788591951e-02 0.0000000000000000e+00  2.3468631997747927e-01 -3.2665566267666514e-02 0.0000000000000000e+00  3.0686165578652235e-02 -8.9481032617244716e-02 0.0000000000000000e+00  2.6627902295883721e-01 -1.8710173109271808e-01 0.0000000000000000e+00  3.6467438434572480e-01 -3.3255783504787034e-01 0.0000000000000000e+00  6.1088984184366713e-01 -3.6724364181497987e-01 0.0000000000000000e+00  6.5476696174519633e-01 -1.1336279793124211e-01 0.0000000000000000e+00  5.9664763802423704e-01 -3.3282300560181194e-02 0.0000000000000000e+00  5.4744759272091092e-01 6.2673973531908837e-03 0.0000000000000000e+00  5.2886647022671129e-01 -1.7547346323740591e-03 0.0000000000000000e+00  3.8495309070881450e-01 1.2808641700183016e-01 0.0000000000000000e+00  3.5871202804286761e-01 1.1930883752319250e-01 0.0000000000000000e+00  3.0823614513528852e-01 1.3921184929372030e-01 0.0000000000000000e+00  3.2787678266330889e-01 1.0233780065555839e-01 0.0000000000000000e+00  3.5260613337240637e-01 6.1284621383849963e-02 0.0000000000000000e+00  4.1266918831715788e-01 9.2542960072916677e-03 0.0000000000000000e+00  3.0911875441296915e-01 6.7122797101878864e-02 0.0000000000000000e+00  2.8818882262802470e-01 7.6838108942018882e-02 0.0000000000000000e+00  3.7797289197818945e-01 3.8791780108851709e-03 0.0000000000000000e+00  2.5830351127104406e-01 4.6751131754759263e-02 0.0000000000000000e+00  -2.0287970532990578e-02 4.4623618893257555e-02 0.0000000000000000e+00  -2.6184563700055043e-02 2.9278054434407317e-02 0.0000000000000000e+00  -2.7026079465130970e-02 1.6185101271701210e-02 0.0000000000000000e+00  -3.1101223652902705e-02 -2.6884138482528635e-03 0.0000000000000000e+00  -3.7555293631230863e-02 -2.6432860245960945e-02 0.0000000000000000e+00  -4.0983978436622381e-02 -4.6838135647332454e-02 0.0000000000000000e+00  -4.3203826509188900e-02 -6.8588417570000240e-02 0.0000000000000000e+00  -4.1434885125939000e-02 -8.2002237394644906e-02 0.0000000000000000e+00  -3.3802418720926188e-02 -1.0585785319403271e-01 0.0000000000000000e+00  -2.1718944172935590e-02 -1.2796544757581910e-01 0.0000000000000000e+00  2.3431566678627351e-03 -1.4800832388491678e-01 0.0000000000000000e+00  2.5270182879313076e-02 -1.5285644541878268e-01 0.0000000000000000e+00  6.8171232335683118e-02 -1.6716984305770657e-01 0.0000000000000000e+00  1.1378448688392084e-01 -1.7107278525293193e-01 0.0000000000000000e+00  1.3599639399591820e-01 -1.5522788452362260e-01 0.0000000000000000e+00  1.8933166415701400e-01 -9.8279876755829415e-02 0.0000000000000000e+00  2.1270034591619791e-01 -9.5372299445756412e-02 0.0000000000000000e+00  2.3639267516745083e-01 -4.7072498947450386e-02 0.0000000000000000e+00  2.5715009873606809e-01 -1.6905804991469764e-02 0.0000000000000000e+00  2.6255045755994688e-01 -2.6987182843054305e-02 0.0000000000000000e+00  2.8249381390582040e-01 6.2342479905065640e-02 0.0000000000000000e+00  9.1811915176954209e-02 -6.8601194544526442e-02 0.0000000000000000e+00  2.9655548844098495e-01 4.5789096942281851e-02 0.0000000000000000e+00  3.3988980224374166e-01 -4.9178583370382854e-02 0.0000000000000000e+00  2.1030181583358268e-01 -5.1713927152851023e-03 0.0000000000000000e+00  -6.0471627802222894e-01 6.3510978467211945e-02 0.0000000000000000e+00  9.2016157447173386e-01 -2.0453750473422758e+00 0.0000000000000000e+00  1.9619962112434011e-01 6.6832049471522671e-03 0.0000000000000000e+00  1.8944323352382569e-01 4.7259152614402361e-02 0.0000000000000000e+00  1.8954323384626015e-01 2.6231843781179303e-02 0.0000000000000000e+00  1.3300923833084549e-01 5.6629191011126581e-02 0.0000000000000000e+00  1.1488123716912838e-01 6.4702934924279171e-02 0.0000000000000000e+00  9.3636969694835412e-02 6.3096251470860287e-02 0.0000000000000000e+00  7.1976858653719542e-02 6.4283470934637876e-02 0.0000000000000000e+00  5.8798237734603562e-02 6.9368745205066279e-02 0.0000000000000000e+00  4.1308506625252837e-02 7.3225731157459825e-02 0.0000000000000000e+00  3.1948863673919227e-02 7.4464442110605142e-02 0.0000000000000000e+00  2.1924868804179071e-02 7.7606237966249630e-02 0.0000000000000000e+00  1.4718544244786023e-02 8.1991085004678360e-02 0.0000000000000000e+00  5.4702499074280233e-03 8.1008836931081685e-02 0.0000000000000000e+00  -1.1304602394599365e-03 8.0113629756776050e-02 0.0000000000000000e+00  -5.2407483525039765e-03 7.9184041090116786e-02 0.0000000000000000e+00  -1.0295066308312848e-02 7.0722556207396842e-02 0.0000000000000000e+00  -1.2209944572950675e-02 6.6842008888787718e-02 0.0000000000000000e+00  -1.5567737312620846e-02 5.4483725438627575e-02 0.0000000000000000e+00  -2.1669385446947739e-02 4.2948139123807488e-02 0.0000000000000000e+00  -2.6401805392383151e-02 2.7296208243931089e-02 0.0000000000000000e+00  -2.6341834419081278e-02 1.4040390806412065e-02 0.0000000000000000e+00  -3.4061733935811828e-02 -5.4105756371158288e-03 0.0000000000000000e+00  -3.6462216387051730e-02 -2.6329671874232918e-02 0.0000000000000000e+00  -4.1510077915755061e-02 -4.4441498916144469e-02 0.0000000000000000e+00  -3.9743864060301816e-02 -6.6559090990459258e-02 0.0000000000000000e+00  -4.3913652272033990e-02 -8.7313150987212262e-02 0.0000000000000000e+00  -3.6721342780405224e-02 -1.0356931623529553e-01 0.0000000000000000e+00  -2.3821256869303795e-02 -1.2690028061457626e-01 0.0000000000000000e+00  -2.3458388573199766e-03 -1.4685009585625675e-01 0.0000000000000000e+00  2.7452080509888517e-02 -1.6031946357361854e-01 0.0000000000000000e+00  8.0771255863980859e-02 -1.5739294776166127e-01 0.0000000000000000e+00  1.0990336592199408e-01 -1.6451176981292367e-01 0.0000000000000000e+00  1.5383798496503462e-01 -1.5356060651238074e-01 0.0000000000000000e+00  2.2450520399881496e-01 -7.7249712452279393e-02 0.0000000000000000e+00  1.7705620391298044e-01 -1.3528195437090920e-01 0.0000000000000000e+00  2.0043147288339455e-01 -9.0913722893449692e-02 0.0000000000000000e+00  2.7424231248462938e-01 4.0219457763276470e-03 0.0000000000000000e+00  2.5536794249824435e-01 4.0387916638987525e-02 0.0000000000000000e+00  2.3166938390049394e-01 3.4065585103775728e-04 0.0000000000000000e+00  2.6029775395518745e-01 -2.4507552437799968e-03 0.0000000000000000e+00  2.7092404817471405e-01 -4.3124517945669445e-03 0.0000000000000000e+00  2.5940631045700679e-01 -2.9803940646654630e-03 0.0000000000000000e+00  3.5592844293935488e-01 2.7058477808582750e-02 0.0000000000000000e+00  1.7828491005122532e-01 1.2081933327056207e-01 0.0000000000000000e+00  2.3839709120830188e-01 3.3671318008523597e-02 0.0000000000000000e+00  1.9667885744531402e-01 7.8470219636625080e-02 0.0000000000000000e+00  1.6377047535106859e-01 6.4101776559508800e-02 0.0000000000000000e+00  1.5760151134904957e-01 5.2882372413407118e-02 0.0000000000000000e+00  1.3160960340755232e-01 5.4955813799148968e-02 0.0000000000000000e+00  1.0745004322521767e-01 6.0511956942577945e-02 0.0000000000000000e+00  9.2267107817856506e-02 6.2873166004795047e-02 0.0000000000000000e+00  7.3939581279187358e-02 6.3449253221316851e-02 0.0000000000000000e+00  5.8074842704392345e-02 6.8000259813128655e-02 0.0000000000000000e+00  4.3905296857510816e-02 7.4335446630780760e-02 0.0000000000000000e+00  3.3559801438217698e-02 7.6864344631199580e-02 0.0000000000000000e+00  2.2141284904522052e-02 7.7385578300020560e-02 0.0000000000000000e+00  1.1755720527153219e-02 8.2293046946750645e-02 0.0000000000000000e+00  6.2197821202990217e-03 8.0942142886646251e-02 0.0000000000000000e+00  -3.6546957384004965e-05 7.8295594694522269e-02 0.0000000000000000e+00  -5.7400993752683687e-03 7.6915104422909553e-02 0.0000000000000000e+00  -8.7898039413875761e-03 7.1486498742980062e-02 0.0000000000000000e+00  -1.3378856761325091e-02 6.4926693992994708e-02 0.0000000000000000e+00  -1.8560313200113466e-02 5.5160339704499552e-02 0.0000000000000000e+00  1.0525479787364397e-02 1.0454003379994890e-02 0.0000000000000000e+00  1.0525479787364397e-02 1.0454003379994890e-02 0.0000000000000000e+00  1.0737577062661327e-02 -4.7465766617495859e-04 0.0000000000000000e+00  1.0737577062661327e-02 -4.7465766617495859e-04 0.0000000000000000e+00  -4.4443132133795762e-03 4.1250192606317959e-02 0.0000000000000000e+00  2.6822237042559477e-01 -7.2297350084267759e-03 0.0000000000000000e+00  -4.7148982966063197e-03 4.1352084563435053e-02 0.0000000000000000e+00  2.6822237042559477e-01 -7.2297350084267759e-03 0.0000000000000000e+00  -1.4677891229917057e-03 -7.7009995896488617e-02 0.0000000000000000e+00  1.6030837200272134e-03 6.4500404959615190e-02 0.0000000000000000e+00  1.4346080110303569e-01 -3.2716589768370819e-03 0.0000000000000000e+00  1.4956377762758252e-01 1.5249353559259686e-02 0.0000000000000000e+00  -1.7125309007872526e-03 -7.7270862087365833e-02 0.0000000000000000e+00  2.3327330920984829e-03 6.4085439428577876e-02 0.0000000000000000e+00  1.4956377762758252e-01 1.5249353559259686e-02 0.0000000000000000e+00  1.4346080110303569e-01 -3.2716589768370819e-03 0.0000000000000000e+00  -5.5954406628665665e-03 -2.3110389864057109e-02 0.0000000000000000e+00  -6.6560256630510963e-04 7.1934766923471977e-02 0.0000000000000000e+00  2.6491307789472401e-01 -2.7085608977729611e-03 0.0000000000000000e+00  1.9471110008679432e-01 -6.3171038102561861e-03 0.0000000000000000e+00  -4.9714436797351708e-03 -2.3173019753326810e-02 0.0000000000000000e+00  -6.0748431793202482e-04 7.2605317099706024e-02 0.0000000000000000e+00  1.9471110008679432e-01 -6.3171038102561861e-03 0.0000000000000000e+00  2.6491307789472401e-01 -2.7085608977729611e-03 0.0000000000000000e+00  -5.3883509160492617e-03 1.3653208936802230e-02 0.0000000000000000e+00  -2.1141515464870161e-03 6.2367774352892681e-02 0.0000000000000000e+00  3.8094274653483817e-01 3.5698622492886696e-02 0.0000000000000000e+00  2.6671674279938218e-01 -7.6487808123373345e-03 0.0000000000000000e+00  -5.5322430379141892e-03 1.3251045710864780e-02 0.0000000000000000e+00  -1.7538517812535604e-03 6.3719698876259057e-02 0.0000000000000000e+00  2.6671674279938218e-01 -7.6487808123373345e-03 0.0000000000000000e+00  3.8094274653483817e-01 3.5698622492886696e-02 0.0000000000000000e+00  6.4819446222295307e-01 -1.7653266848329388e-01 0.0000000000000000e+00  7.7564578803653236e-02 5.8385910207619188e-03 0.0000000000000000e+00  7.7564578803653236e-02 5.8385910207619188e-03 0.0000000000000000e+00  6.3426747466276828e-02 -3.5324073878187381e-03 0.0000000000000000e+00  6.3426747466276828e-02 -3.5324073878187381e-03 0.0000000000000000e+00  4.5829782964081203e-04 -6.9502761136766053e-02 0.0000000000000000e+00  2.0849889131609755e-03 -7.4070299727347758e-02 0.0000000000000000e+00  4.4976360514787676e-03 2.6179624511263540e-02 0.0000000000000000e+00  3.3375534260315781e-03 2.6162632545032805e-02 0.0000000000000000e+00  3.7651482580023148e-02 1.6433769030344322e-01 0.0000000000000000e+00  -1.2880621826826896e-01 -1.0160590040368031e-01 0.0000000000000000e+00  1.1508496710533787e-01 -2.1812239118888732e-01 0.0000000000000000e+00  2.0876300375971135e-01 1.7359174786035395e-01 0.0000000000000000e+00  6.5839545426189264e-02 1.6701437063210986e-01 0.0000000000000000e+00  -8.9331161917645702e-02 9.9054645403481550e-02 0.0000000000000000e+00  -1.4522833643094696e-01 -4.4720204557297902e-02 0.0000000000000000e+00  8.8907236234100392e-02 -2.1990332912103605e-01 0.0000000000000000e+00  -6.8368048243839422e-02 1.1507834178811767e-01 0.0000000000000000e+00  3.4812738895531437e-01 3.6245714534801007e-02 0.0000000000000000e+00  1.8430262377816395e-01 1.7241534228299385e-01 0.0000000000000000e+00  -1.4336955384419736e-02 1.5348607815348042e-01 0.0000000000000000e+00  3.3050888691862790e-01 -3.6338311881859736e-02 0.0000000000000000e+00  6.4817522061371080e-01 -1.7716594340797809e-01 0.0000000000000000e+00  6.4935899347193038e-01 -1.7383794769984734e-01 0.0000000000000000e+00  6.4826777995042795e-01 -1.7707528811698128e-01 0.0000000000000000e+00  6.4621637243113861e-01 -1.7423605737684900e-01 0.0000000000000000e+00  6.4886131663963864e-01 -1.7702921796911075e-01 0.0000000000000000e+00  1.1563263313675540e-01 1.7688730288367449e-01 0.0000000000000000e+00  -1.1759513224746734e-01 3.6943018418785195e-02 0.0000000000000000e+00  3.0703452863475589e-01 1.1379866139627952e-01 0.0000000000000000e+00  4.4474301224962744e-02 2.2391360689557958e-02 0.0000000000000000e+00  3.8610601238791703e-02 -8.4538017424332257e-02 0.0000000000000000e+00  4.3074871643978156e-02 -7.4057433714971685e-02 0.0000000000000000e+00  4.8691083053733569e-02 2.2269724459358039e-02 0.0000000000000000e+00  -2.8556897237177092e-02 1.7173913104968913e-01 0.0000000000000000e+00  2.8697978335602531e-01 1.7327323487754501e-01 0.0000000000000000e+00  9.6113372608834860e-02 1.5398132956878723e-03 0.0000000000000000e+00  8.3043651287096568e-03 -9.4022147539577938e-02 0.0000000000000000e+00  3.6916566843003991e-03 4.8422723387506389e-02 0.0000000000000000e+00  7.2642553627037323e-03 -9.2708907599357446e-02 0.0000000000000000e+00  2.4402184342031823e-02 4.6055580737070827e-02 0.0000000000000000e+00  8.3119273185325707e-02 9.4992665889822719e-03 0.0000000000000000e+00  9.0519313379605129e-02 4.4407021450956269e-03 0.0000000000000000e+00  9.0519313379605129e-02 4.4407021450956269e-03 0.0000000000000000e+00  6.4373160007365593e-01 -1.7543058546721826e-01 0.0000000000000000e+00  6.5092711442263640e-01 -1.7371812876748813e-01 0.0000000000000000e+00  -5.2580998840311671e-02 -1.6130672519728889e-01 0.0000000000000000e+00  1.2282519766441130e-01 1.3944245417110016e-01 0.0000000000000000e+00  4.6060435556525992e-03 -3.4457218437068627e-03 0.0000000000000000e+00  5.4542393996249411e-02 -6.0137457680960252e-03 0.0000000000000000e+00  3.1862175605506984e-02 -8.0188153984249574e-04 0.0000000000000000e+00  6.4689706500624877e-01 -1.7692226296024505e-01 0.0000000000000000e+00  6.4813360165743694e-01 -1.7445935917443139e-01 0.0000000000000000e+00  6.4184733237432678e-01 -1.7366014655814072e-01 0.0000000000000000e+00  3.1862175605506984e-02 -8.0188153984249574e-04 0.0000000000000000e+00  9.8646041647500113e-02 2.3750139754122081e-02 0.0000000000000000e+00  1.4556458029331715e-01 -1.4154582864431087e-01 0.0000000000000000e+00  1.0687260636491595e-01 -1.1877737486272848e-01 0.0000000000000000e+00  2.9007313979092270e-01 8.5070245962681701e-02 0.0000000000000000e+00  2.4163487861019464e-01 1.1262918923931255e-01 0.0000000000000000e+00  -1.1861237733953574e-01 -2.1803144934732227e-01 0.0000000000000000e+00  1.0447119667018774e-01 2.2475229760709531e-01 0.0000000000000000e+00  -9.4660360579237962e-02 2.2187919464759912e-02 0.0000000000000000e+00  -1.6414543459907416e-01 7.9474929174797801e-02 0.0000000000000000e+00  2.6123664942592079e-01 -9.4963439143608955e-02 0.0000000000000000e+00  3.7165379537149668e-01 -1.1808661429635611e-01 0.0000000000000000e+00  -6.4074565784037724e-02 1.7120175691853895e-01 0.0000000000000000e+00  -3.0479615992892502e-02 1.0491822676107496e-01 0.0000000000000000e+00  2.7236143775610802e-02 1.2638784775929540e-01 0.0000000000000000e+00  -5.3560936275161260e-03 -1.8131122142542599e-01 0.0000000000000000e+00  2.5661952744331317e-02 4.8071012275600282e-02 0.0000000000000000e+00  3.4627915761823828e-02 2.2211611181824483e-03 0.0000000000000000e+00  3.4627915761823828e-02 2.2211611181824483e-03 0.0000000000000000e+00  -2.3186082517663683e-02 1.3317441071073806e-02 0.0000000000000000e+00  1.8982694937438390e-03 2.9381828469120519e-03 0.0000000000000000e+00  1.0268286943505785e-02 1.2269447723029082e-01 0.0000000000000000e+00  -1.5988405797954436e-02 1.0858924940568068e-01 0.0000000000000000e+00  6.4770028654808465e-01 -1.7648889722443556e-01 0.0000000000000000e+00  6.4884781342832409e-01 -1.7564025534546884e-01 0.0000000000000000e+00  3.7543609379257570e-01 1.3162900682276563e-01 0.0000000000000000e+00  1.6538340550873015e-01 1.2715152066578334e-01 0.0000000000000000e+00  -1.8167139001580646e-01 2.6064804268423860e-02 0.0000000000000000e+00  -1.3018738521976300e-01 1.3011338262813590e-01 0.0000000000000000e+00  7.8465632225328985e-02 1.2823955100439424e-01 0.0000000000000000e+00  2.2830476307629033e-01 -1.1069707667561272e-01 0.0000000000000000e+00  -6.7452718847702528e-02 5.7134549037693355e-02 0.0000000000000000e+00  -9.6119789983295262e-02 -4.2679530320960599e-02 0.0000000000000000e+00  -9.8575802411426355e-02 -2.3849562717786860e-01 0.0000000000000000e+00  2.0884399253784078e-02 2.0347534380122193e-01 0.0000000000000000e+00  2.9566320756217412e-01 3.6263036454752366e-02 0.0000000000000000e+00  2.7275722649927536e-01 2.0486062930499113e-01 0.0000000000000000e+00  2.5063609392383490e-01 1.1286159570926074e-01 0.0000000000000000e+00  1.5810678080393692e-01 2.3399907156967045e-01 0.0000000000000000e+00  6.4615950941027911e-01 -1.7667400758504678e-01 0.0000000000000000e+00  6.4548780820773299e-01 -1.7496486058710520e-01 0.0000000000000000e+00  6.4573553163857589e-01 -1.6431331986151043e-01 0.0000000000000000e+00  6.4972350550994806e-01 -1.7644966000269097e-01 0.0000000000000000e+00  5.7213268519970594e-04 -8.4288777710929394e-02 0.0000000000000000e+00  -4.1772601822892943e-03 -5.7657090535935998e-02 0.0000000000000000e+00  -4.3805583219216357e-03 -5.7964416380873532e-02 0.0000000000000000e+00  6.1665131931920223e-04 7.2389818433585287e-02 0.0000000000000000e+00  8.3119273185325707e-02 9.4992665889822719e-03 0.0000000000000000e+00  1.9377212793911944e-01 6.3383326477098219e-03 0.0000000000000000e+00  1.9520672061931268e-01 1.4386425138186673e-03 0.0000000000000000e+00  7.2308012579832073e-04 7.2713288355758715e-02 0.0000000000000000e+00  1.9520672061931268e-01 1.4386425138186673e-03 0.0000000000000000e+00  1.9377212793911944e-01 6.3383326477098219e-03 0.0000000000000000e+00  1.5396264511506993e-04 -8.4043701556182598e-02 0.0000000000000000e+00  3.6952122640715825e-03 4.7867232364924531e-02 0.0000000000000000e+00  6.4416050222437571e-02 2.2253683615014511e-01 0.0000000000000000e+00  3.6380347964194709e-01 -1.7409169511924438e-01 0.0000000000000000e+00  3.6719263759081917e-02 1.7082257458735607e-03 0.0000000000000000e+00  -1.0331484009011766e-03 -8.9069774287944506e-02 0.0000000000000000e+00  -4.3024203449960240e-02 -1.0421597122080681e-01 0.0000000000000000e+00  6.4820209628027226e-01 -1.76