<?xml version="1.0"?>
<VTKFile type="UnstructuredGrid"  version="0.1"  >
<UnstructuredGrid>
<Piece  NumberOfPoints="2577" NumberOfCells="4963">
<Points>
<DataArray  type="Float64"  NumberOfComponents="3"  format="ascii">-0.4987820251299121 0.03487823687206276 0  -0.4987820251299122 -0.03487823687206242 0  -0.4890738003669028 -0.1039558454088795 0  -0.4698463103929542 -0.1710100716628343 0  -0.4414737964294634 -0.2347357813929454 0  -0.4045084971874738 -0.2938926261462365 0  -0.3596699001693255 -0.3473291852294987 0  -0.307830737662829 -0.3940053768033611 0  -0.2500000000000002 -0.4330127018922192 0  -0.1873032967079561 -0.4635919272833937 0  -0.1209609477998339 -0.4851478631379982 0  -0.05226423163382668 -0.4972609476841367 0  0.01744974835125064 -0.4996954135095479 0  0.08682408883346499 -0.4924038765061041 0  0.1545084971874736 -0.4755282581475768 0  0.2191855733945387 -0.4493970231495835 0  0.2795964517353731 -0.414518786277521 0  0.3345653031794289 -0.3715724127386973 0  0.3830222215594889 -0.3213938048432698 0  0.4240240480782127 -0.2649596321166029 0  0.4567727288213005 -0.2033683215379001 0  0.4806308479691593 -0.1378186779084999 0  0.4951340343707851 -0.06958655048003294 0  0.5 0 0  0.4951340343707852 0.06958655048003272 0  0.4806308479691594 0.1378186779084996 0  0.4567727288213004 0.2033683215379001 0  0.424024048078213 0.2649596321166025 0  0.383022221559489 0.3213938048432696 0  0.3345653031794291 0.3715724127386971 0  0.2795964517353734 0.4145187862775209 0  0.2191855733945387 0.4493970231495835 0  0.1545084971874737 0.4755282581475768 0  0.08682408883346521 0.492403876506104 0  0.01744974835125054 0.4996954135095479 0  -0.05226423163382667 0.4972609476841367 0  -0.1209609477998339 0.4851478631379982 0  -0.187303296707956 0.4635919272833937 0  -0.2499999999999999 0.4330127018922194 0  -0.3078307376628291 0.394005376803361 0  -0.3596699001693256 0.3473291852294986 0  -0.4045084971874737 0.2938926261462366 0  -0.4414737964294634 0.2347357813929455 0  -0.4698463103929542 0.1710100716628344 0  -0.4890738003669028 0.1039558454088797 0  1 0 0  0.9975640502598242 0.0697564737441253 0  0.9902680687415704 0.1391731009600654 0  0.9781476007338057 0.2079116908177593 0  0.9612616959383189 0.2756373558169992 0  0.9396926207859084 0.3420201433256687 0  0.9135454576426009 0.4067366430758002 0  0.882947592858927 0.4694715627858908 0  0.848048096156426 0.5299192642332049 0  0.8090169943749475 0.5877852522924731 0  0.766044443118978 0.6427876096865393 0  0.7193398003386512 0.6946583704589973 0  0.6691306063588582 0.7431448254773941 0  0.6156614753256583 0.788010753606722 0  0.5591929034707468 0.8290375725550417 0  0.5000000000000001 0.8660254037844386 0  0.4383711467890775 0.898794046299167 0  0.374606593415912 0.9271838545667874 0  0.3090169943749475 0.9510565162951535 0  0.2419218955996679 0.9702957262759965 0  0.1736481776669304 0.984807753012208 0  0.1045284632676535 0.9945218953682733 0  0.03489949670250108 0.9993908270190958 0  -0.03489949670250073 0.9993908270190958 0  -0.1045284632676533 0.9945218953682734 0  -0.1736481776669303 0.984807753012208 0  -0.2419218955996678 0.9702957262759965 0  -0.3090169943749473 0.9510565162951536 0  -0.3746065934159121 0.9271838545667874 0  -0.4383711467890775 0.8987940462991669 0  -0.4999999999999998 0.8660254037844387 0  -0.5591929034707467 0.8290375725550417 0  -0.6156614753256583 0.788010753606722 0  -0.6691306063588582 0.7431448254773942 0  -0.7193398003386512 0.6946583704589971 0  -0.7660444431189779 0.6427876096865395 0  -0.8090169943749473 0.5877852522924732 0  -0.848048096156426 0.5299192642332049 0  -0.8829475928589268 0.4694715627858911 0  -0.9135454576426008 0.4067366430758004 0  -0.9396926207859083 0.3420201433256689 0  -0.9612616959383187 0.2756373558169997 0  -0.9781476007338057 0.2079116908177593 0  -0.9902680687415703 0.1391731009600657 0  -0.9975640502598242 0.06975647374412552 0  -1 1.224646799147353e-16 0  -0.9975640502598243 -0.06975647374412483 0  -0.9902680687415703 -0.1391731009600655 0  -0.9781476007338057 -0.2079116908177591 0  -0.9612616959383189 -0.275637355816999 0  -0.9396926207859084 -0.3420201433256687 0  -0.9135454576426011 -0.4067366430757998 0  -0.8829475928589269 -0.4694715627858909 0  -0.8480480961564261 -0.5299192642332048 0  -0.8090169943749476 -0.587785252292473 0  -0.766044443118978 -0.6427876096865393 0  -0.7193398003386511 -0.6946583704589974 0  -0.6691306063588585 -0.743144825477394 0  -0.6156614753256581 -0.7880107536067221 0  -0.5591929034707472 -0.8290375725550414 0  -0.5000000000000004 -0.8660254037844384 0  -0.4383711467890777 -0.8987940462991668 0  -0.3746065934159123 -0.9271838545667873 0  -0.3090169943749476 -0.9510565162951535 0  -0.2419218955996678 -0.9702957262759965 0  -0.1736481776669303 -0.984807753012208 0  -0.1045284632676534 -0.9945218953682734 0  -0.03489949670250165 -0.9993908270190957 0  0.03489949670250128 -0.9993908270190958 0  0.104528463267653 -0.9945218953682734 0  0.17364817766693 -0.9848077530122081 0  0.2419218955996675 -0.9702957262759966 0  0.3090169943749472 -0.9510565162951536 0  0.374606593415912 -0.9271838545667874 0  0.4383711467890774 -0.898794046299167 0  0.5000000000000001 -0.8660254037844386 0  0.5591929034707462 -0.8290375725550421 0  0.6156614753256585 -0.7880107536067218 0  0.6691306063588578 -0.7431448254773946 0  0.7193398003386509 -0.6946583704589976 0  0.7660444431189778 -0.6427876096865396 0  0.8090169943749473 -0.5877852522924734 0  0.8480480961564254 -0.5299192642332058 0  0.8829475928589269 -0.4694715627858908 0  0.913545457642601 -0.4067366430758002 0  0.9396926207859084 -0.3420201433256686 0  0.9612616959383187 -0.2756373558169998 0  0.9781476007338056 -0.2079116908177599 0  0.9902680687415703 -0.1391731009600659 0  0.9975640502598243 -0.06975647374412476 0  -1.1 1.1 0  -1.1 -1.1 0  1.1 -1.1 0  1.1 1.1 0  1.1 0 0  0 1.1 0  -1.1 0 0  0 -1.1 0  1.1 0.55 0  1.1 -0.55 0  -0.55 1.1 0  0.55 1.1 0  -1.1 -0.55 0  -1.1 0.55 0  0.55 -1.1 0  -0.55 -1.1 0  1.1 0.275 0  1.1 -0.275 0  -0.275 1.1 0  0.275 1.1 0  -1.1 -0.275 0  -1.1 0.275 0  0.275 -1.1 0  -0.275 -1.1 0  1.1 0.1375 0  1.1 -0.1375 0  -0.1375 1.1 0  0.1375 1.1 0  -1.1 -0.1375 0  -1.1 0.1375 0  0.1375 -1.1 0  -0.1375 -1.1 0  5.551115123125783e-17 -1.665334536937735e-16 0  -0.8250000000000001 -1.1 0  -0.8250000000000001 1.1 0  0.8250000000000001 1.1 0  0.8250000000000001 -1.1 0  -1.1 -0.8250000000000001 0  1.1 0.8250000000000001 0  1.1 -0.8250000000000001 0  -1.1 0.8250000000000001 0  0.5913683108017449 -0.4620275612009603 0  0.649914963473963 0.3752285791120578 0  0.4606240494606415 0.5895718976940387 0  0.181000513545807 -0.72595340868972 0  -0.5213113466312544 0.5398337023596473 0  -0.748177477268642 3.677613769070831e-16 0  -0.6834941358692682 -0.3043111955291684 0  -0.4823845629070328 -0.574883535856444 0  0.7463460753897364 -0.07844413349737717 0  0.1810005135458073 0.7259534086897199 0  -0.2311995552845864 0.7115590651016113 0  -0.6834941358692682 0.3043111955291685 0  -0.2566714648155866 -0.7051990537991649 0  -0.1676911387756446 0.1862398773501902 0  0.09388033613439234 0.2323619857605368 0  0.25 0.01748170298587768 0  -0.1919787613936808 -0.1610893078793085 0  0.1253052372601464 -0.2170350373890467 0  0.4100151197949826 -0.6310439038757515 0  0.7462612140915066 0.1586227177749866 0  -0.04055708751545835 -0.7729701257972625 0  -0.8714499137803688 0.8714499137803687 0  0.8475624786996654 0.8776766395249775 0  -0.8475624786996656 -0.8776766395249775 0  0.8475624786996647 -0.8776766395249778 0  0.6549247837405074 -0.2646067885805835 0  -0.02452403903941524 0.7022765934528045 0  -0.6971570973421019 0.9595544245098317 0  0.9457715379788133 0.7171099473715343 0  -1.1 0.6875 0  -0.9457715379788133 -0.7171099473715342 0  0.945771537978813 -0.7171099473715348 0  -0.6875 -1.1 0  0.6875 1.1 0  0.6875 -1.1 0  -0.3021034145256841 0.04245786604388235 0  -0.05297525897811498 -0.3004376231321225 0  -0.6493495559083107 -0.4889583914999844 0  -0.4184043150681578 0.6969024203637967 0  1.1 -0.9625000000000001 0  1.1 0.9625000000000001 0  -0.9625000000000001 -1.1 0  0.2887013349030826 -0.1535052227012283 0  -0.056778523551556 0.3220070083626767 0  0.2645279155006937 0.1921907804558624 0  -0.9625000000000001 1.1 0  0.6922516407240482 -0.9346405102034137 0  0.6809472320731365 0.9372434590203537 0  -0.6809472320731367 -0.9372434590203537 0  0.06398867824008851 0.8378070690880577 0  -0.1172078581063797 0.8339772447956406 0  -0.5066579812390133 -0.4168691543844079 0  -0.3616253213577449 0.5474571478967749 0  -0.8028623003113451 -0.1706536500486641 0  -0.6435813133346415 -0.1485334625034662 0  0.3598144769124489 0.7377290042694387 0  0.2791822551364582 0.5985953263881472 0  -0.6535024333571912 0.1389062302773976 0  -0.8110749424437763 0.1957563045411092 0  -0.6949649763371784 0.4687597954466224 0  0.6229628706227364 0.560918288156104 0  -0.9297411857248856 0.7099174590703911 0  0.9625000000000001 1.1 0  0.9625000000000001 -1.1 0  -1.1 -0.9625000000000001 0  -1.1 0.9625000000000001 0  0.7388223103480156 -0.4005571441608962 0  0.8083621931560332 -0.2626527982464245 0  -0.155403738656764 -0.009737379389236772 0  -0.03944258252365207 -0.1479345038122513 0  -0.1124826985140496 -0.6379210831042694 0  0.3343324134502086 -0.7721815783645656 0  0.6086499783436645 0.2271435919934762 0  0.6451580408601226 0.04511384499706936 0  0.5687769439189224 -0.6195906411664603 0  -0.4001602488812527 -0.7525919704505459 0  0.8457217097464697 0.0401248801850398 0  0.7889254854389035 0.307330107167108 0  0.4993777703025682 0.4330411172771549 0  -0.5409883622077387 0.3797819883575305 0  -0.1783153826881871 -0.8337981003274648 0  0.04893952783735875 -0.6491733978417491 0  0.09057598678368259 -0.8453775254020186 0  0.2396424741704135 -0.593135937339345 0  -0.3077981704318665 0.1923336432766373 0  -0.33157036934951 -0.1476246396327481 0  -0.1945783708747696 -0.3026864137415663 0  0.07931900866494118 -0.3509819116997642 0  -1.1 -0.6875 0  -1.1 -0.4125 0  1.1 0.4125 0  1.1 -0.4125 
[...]
<PointData  Scalars="f_109"> 
<DataArray  type="Float64"  Name="f_109"  format="ascii">-3.3803339360590928e-01  -3.4693637510128955e-01  -3.5505938020393646e-01  -3.6140689949909838e-01  -3.6334114387582506e-01  -3.5608876113089560e-01  -3.3209638117173712e-01  -2.8344557067830439e-01  -2.1935025388585261e-01  -1.4579496458357805e-01  -8.2798336564567421e-02  -3.3371958921832513e-02  4.0687769981002618e-03  3.2844820693185763e-02  5.5526986696276003e-02  7.3872734920444369e-02  8.9265373849783475e-02  1.0267896554634513e-01  1.1469029662731681e-01  1.2570417302531184e-01  1.3603789796967228e-01  1.4583535695765670e-01  1.5533150573758076e-01  1.6452597729857335e-01  1.7317406682889905e-01  1.8049303944487244e-01  1.8515633230597653e-01  1.8285635812982529e-01  1.6861743996151193e-01  1.3316144549224801e-01  7.4938188977456799e-02  3.0491200366051523e-03  -6.6089490022533337e-02  -1.2191953928792194e-01  -1.6511178213359032e-01  -1.9763083947433568e-01  -2.2298696242710078e-01  -2.4323652964241085e-01  -2.6001075586773426e-01  -2.7430196507740978e-01  -2.8692481861527752e-01  -2.9835615684435451e-01  -3.0894411331249916e-01  -3.1893030338123468e-01  -3.2858704178672521e-01  1.1451385334798439e-01  1.1713543336827473e-01  1.1884901239116287e-01  1.1946599945953594e-01  1.1904877479876982e-01  1.1762473139906850e-01  1.1524667873876758e-01  1.1186040925791005e-01  1.0743201223404805e-01  1.0182924562220640e-01  9.4954574300624622e-02  8.6400081437489493e-02  7.6162324983463203e-02  6.3986713282953564e-02  5.0205030861080399e-02  3.5239876487643325e-02  1.9409299942791721e-02  2.9103602674419634e-03  -1.4402564831761838e-02  -3.2019414367394534e-02  -4.9229354437694758e-02  -6.9870621845719849e-02  -8.5561739190149699e-02  -1.0548907470665347e-01  -1.2584842630608312e-01  -1.3987379590457535e-01  -1.5578150333946439e-01  -1.6908688423118778e-01  -1.8266287637592843e-01  -1.9457871478989419e-01  -2.0504088571248164e-01  -2.1424085847422375e-01  -2.2244062388285135e-01  -2.2975309353048279e-01  -2.3635015384915004e-01  -2.4250947546568416e-01  -2.4827198670949771e-01  -2.5383982537697464e-01  -2.5927735336460822e-01  -2.6464754704873994e-01  -2.6995864572343414e-01  -2.7515120596152109e-01  -2.8015877337803619e-01  -2.8478595904490006e-01  -2.8891325707606635e-01  -2.9237164928564036e-01  -2.9498620900244960e-01  -2.9666851156118990e-01  -2.9728810138261919e-01  -2.9684687424631051e-01  -2.9540229998090417e-01  -2.9297882759306365e-01  -2.8963828835297872e-01  -2.8517946974036029e-01  -2.7954353443113056e-01  -2.7262140053188905e-01  -2.6418006875639904e-01  -2.5372760570603642e-01  -2.4191308915822554e-01  -2.2809622946626287e-01  -2.1330232826635800e-01  -1.9742496617033681e-01  -1.8078288360719874e-01  -1.6307401497429583e-01  -1.4754857294749349e-01  -1.2944164888276613e-01  -1.1268251729067318e-01  -9.3368629711505752e-02  -7.3147858294103252e-02  -5.4826033978200794e-02  -3.5703819571356731e-02  -2.1779023276705403e-02  -7.7160243707903474e-03  5.2914759001011372e-03  1.7123037342782321e-02  2.7360159813172448e-02  3.6518875450170039e-02  4.4724544788735526e-02  5.2008781952450976e-02  5.8519663159999777e-02  6.4628185794992632e-02  7.0461651816773080e-02  7.6038551403019392e-02  8.1397581188938084e-02  8.6826918927955909e-02  9.2104182719178820e-02  9.7307320100175745e-02  1.0228198898891544e-01  1.0691616081052566e-01  1.1105350699075141e-01  -2.4237369866220421e-01  -2.4237369866220421e-01  6.4589188943953782e-02  6.4589188943953782e-02  1.1362379895168431e-01  -8.9655428989412186e-02  -2.9147394777270746e-01  -8.9655428989412186e-02  1.0168261854091215e-01  7.7452963873545735e-02  -2.0720970463151614e-01  2.9572543125054439e-02  -2.7942323948301606e-01  -2.5528209248024120e-01  2.9572543125054439e-02  -2.0720970463151614e-01  1.1655535100085196e-01  9.7011801182956978e-02  -1.5689661849024961e-01  -2.1092281935644552e-02  -2.9435677749055261e-01  -2.7486271657881378e-01  -2.1092281935644552e-02  -1.5689661849024961e-01  1.1735917087209051e-01  1.0637886053576265e-01  -1.2524542738386168e-01  -5.3909872555754607e-02  -2.9518511122590307e-01  -2.8421534710929747e-01  -5.3909872555754607e-02  -1.2524542738386168e-01  -8.9060293384947836e-02  -2.3445061552718374e-01  -2.3445061552718374e-01  5.6651486270033802e-02  5.6651486270033802e-02  -2.5692861338790740e-01  7.9190256939784792e-02  6.4548446845543700e-02  -2.4234320966601583e-01  8.1744993276560152e-02  1.3243284326858998e-01  6.8668564689591371e-02  -6.0384810635488546e-03  -2.4541279107773503e-01  -3.1008544684241685e-01  -3.1703085849389262e-01  -2.5379356206973008e-01  1.2593184950068106e-01  -4.8021892444793823e-02  -1.8440116083469116e-01  -2.8159243626108904e-01  -1.6416497946566061e-01  -1.8515981486884306e-01  -6.2029925989093807e-02  4.0514153778800972e-02  -2.1857631099626326e-01  -3.4416920338561684e-03  4.4663067175346245e-02  1.3842260659543185e-01  -7.7162464211752102e-02  -2.3640998068197763e-01  7.0314575194597023e-02  -2.4813393160905892e-01  5.7387033448136823e-02  1.1070310945315510e-01  -1.3449464102950576e-01  -2.2358985403688145e-01  8.7267297885374157e-02  -2.4753094735881101e-01  -2.6501114099744377e-01  6.6574760407664815e-02  -2.2364992165150788e-01  4.5884980452698530e-02  4.5884980452698530e-02  -2.3837110456896746e-01  -6.8397670337673133e-02  -2.8935486252625070e-01  -2.1243219399195959e-01  6.2719883311777622e-02  7.0236562456433393e-02  -2.4052080154927549e-01  5.4915775266656600e-02  -1.6887964082977047e-01  8.5999882589473248e-02  -2.4052080154927549e-01  4.5763602910626963e-02  5.3704358696097070e-02  -2.3155138540873427e-01  -8.7738050761680703e-02  -1.4000893372284681e-01  -3.0323887487454493e-01  -2.3642735582359248e-01  -3.1001219765891741e-01  -3.3084046660451266e-01  1.8027555499184337e-02  1.0097902127198554e-02  -3.0613754992911585e-01  -2.8776046345190820e-01  -2.5897168574282708e-01  9.7132476344232263e-02  -2.4433943035898911e-01  6.2675783304258090e-02  6.2675783304258090e-02  -2.4799038234353007e-01  -2.4047626594916630e-01  8.9376791409188458e-02  1.0312130981666350e-01  -1.6943433119621182e-01  -8.8465416563709334e-02  -9.4641796754542443e-02  1.2968036297465660e-02  1.5629734276452523e-01  1.4834191859244628e-01  5.7469507257843361e-02  -2.0512196161595850e-01  1.2495193707389007e-01  1.2889830880760339e-01  1.1940688468424321e-01  -2.7462133521611631e-01  -1.2974690788801457e-01  -2.4626999404612663e-02  -4.6224172285838222e-02  3.4500256691398258e-02  -2.4503105592432006e-01  -2.8832730617979024e-01  -1.9860757949100238e-01  4.7066100700481478e-03  -2.6802394691107989e-01  -2.8883634492896071e-01  1.1106722825829680e-01  8.6935507201043108e-02  -2.2364992165150788e-01  -1.8479014964910664e-01  6.9049567922169737e-03  -2.6477782229101909e-01  6.9049567922169737e-03  -1.8479014964910664e-01  9.0294055831224046e-02  6.9698731693692922e-02  7.6561627354838499e-02  -1.9410871282812953e-01  6.0751433686485661e-02  7.3251573031202596e-02  -2.4635995145258571e-01  -2.4006541901611618e-02  -1.3608054771714850e-01  -9.9182833704929193e-03  -2.2756685296008677e-01  -2.6188389136548079e-01  -9.4833325377500874e-02  9.7225868597357712e-02  -2.2230576907990537e-01  4.9360335989895331e-02  -3.0176556653688380e-01  -3.0493896063663140e-01  5.8013484360954472e-02  -2.7405944591691772e-01  -2.0716266955837972e-02  -1.7859552319900646e-01  1.0471830797542207e-01  -2.9541205057124270e-01  7.5957067676251572e-02  9.9520490368250475e-02  -2.5377880003488429e-01  -2.7723256018431658e-01  1.3252420569040857e-01  7.8681621855130918e-02  -1.8482220818492845e-01  -2.9623992158200230e-01  -1.4477984126614515e-02  -6.3516085771454373e-02  -3.3350484721360374e-01  -3.2379442128862213e-01  3.3041623034481382e-02  7.4701948002389038e-02  1.1573742954089362e-01  -2.6347169788203728e-01  1.1375821349791018e-01  6.4496214761224344e-02  -2.9809596592236087e-01  -2.4304715512224870e-01  -2.3870098983403790e-01  -2.6179351732257211e-01  -2.5474031545669662e-01  6.2901884959530904e-02  1.1128597058803054e-01  2.6352381046577503e-02  -2.1430421686953660e-01  -2.3568363955460997e-01  -2.3041294137544149e-01  -2.1397108131319539e-01  3.2248028318211851e-02  2.9497938603778997e-02  -2.0997623619112130e-01  1.2680690293025665e-01  -1.6934542880992004e-01  -1.4263575549247415e-01  -2.3418689039141563e-01  -2.4125602207717609e-01  1.5435780781344219e-01  -9.8014094063695295e-02  6.2933408018007203e-02  -2.6029338612740599e-01  6.0767926358232235e-02  8.2518276053163933e-02  -2.3821683365714805e-01  5.2619568728196994e-02  -2.2988784397717157e-01  -2.4609094820641755e-01  -2.3734205297765876e-01  6.8298490395841460e-02  5.6411011995843148e-02  -2.1733660275934794e-01  5.8115420132911752e-02  1.0786199078749366e-01  -2.8561613056188717e-01  -3.1008461044725616e-01  -3.0066582882957921e-01  -2.9158829070216002e-01  -2.7492114650148841e-01  -1.8974021253561094e-01  9.5837044285919548e-02  6.7446607081243296e-02  1.2444503938253670e-01  1.1598031137068633e-01  -2.7089209341125919e-01  -1.5563818707787508e-01  -9.2397610920125411e-02  -1.5913720366256104e-01  -1.1262663733244704e-01  -2.0013187376307773e-01  -1.9285107763990181e-01  -1.9476977353374708e-01  1.4129770321361817e-02  2.7091709638376062e-02  4.1312119936856233e-02  1.3409327109472929e-01  -3.3765003808865178e-02  -5.3360174040820718e-02  -2.0730119363338126e-01  1.6215404103472338e-02  5.0540490222766951e-02  1.4109011451800194e-01  -6.2051283793836357e-02  -2.7652130356373556e-02  -1.4715052610969981e-01  8.1885287852423425e-02  -2.6109851270668538e-01  -2.4059721295470560e-01  -2.4435552282127901e-01  6.2662617711061117e-02  -2.8028131660950972e-01  -9.6035234661600438e-02  -2.0730384704499941e-01  8.2257579228918298e-02  -1.5761223279565958e-01  9.9222632000673092e-02  1.1170773848431886e-01  -3.0239265103504903e-01  1.0056281210365853e-02  3.5316599585476581e-02  -2.2025971873539274e-01  -2.2896034190543293e-01  -1.1052152944909692e-01  -1.2125828463605716e-01  -2.4191407407445759e-01  1.6248301752652147e-01  6.8801686340243806e-02  9.2658612161675286e-02  7.0244375200408590e-02  7.8160480850194336e-02  -2.6231090263240664e-01  -2.7270605329673098e-01  6.6739565516722901e-02  8.4566899618662733e-02  -2.6065457240123424e-01  7.9056627341371560e-02  -2.8660334886448757e-01  -2.7412371736038571e-01  -2.2934982434847101e-01  1.1555131459981186e-01  -2.5335137407758190e-01  1.1986587108484308e-01  -5.9363158951554126e-02  -2.4094063492426576e-01  8.1429117593974226e-02  -2.5127300096097538e-01  -1.5596579921560375e-01  -2.6981637779901474e-01  1.1035585793086504e-01  -3.3866010636301264e-01  -4.2543792472821411e-02  -3.2292412755671424e-01  4.8569100379095925e-02  -6.4755608948366935e-03  -8.6724034540881757e-04  -1.7831311663420657e-01  -1.7437489178659482e-01  -1.7014665786038927e-01  -2.5114061460788401e-01  -2.4876180585019281e-01  7.1190263007845103e-02  4.3254111866214445e-02  1.0857227116535259e-02  -3.1082427480532360e-01  -3.1445884696899651e-01  -6.9097182726978058e-03  4.5516898769219369e-02  -2.1426706301163798e-01  -1.4607167543217883e-01  1.4784973808507929e-01  9.3671873728490132e-02  -2.4454564514101593e-01  -2.7049968140523206e-01  9.5837244757082232e-02  -2.2178058245670587e-01  -2.4348991780619111e-01  -2.3154676000643276e-01  1.3803049073667431e-01  8.9067715758744281e-02  1.2135316900399691e-01  -2.9078749371671320e-01  6.3159963724267257e-02  5.3383436116045943e-02  -1.2370130629339228e-01  -1.8546777217719712e-01  2.8077860162673010e-02  1.2351191792916295e-01  -1.5471648847575917e-02  -3.4350432177071322e-01  8.8229183719271798e-02  -2.6981980141806244e-01  -2.9095309933403174e-01  1.1317587261809524e-01  4.5222329580426775e-02  6.3946249262527760e-02  1.0334120451648432e-01  -1.1825652217853019e-01  -4.1080355648051750e-02  -2.1616571536663809e-01  -1.9602541137118409e-01  4.1008283747829985e-02  4.3021253705435379e-02  -2.4867832489098174e-01  4.0333719462712227e-02  -2.7870445981362540e-01  9.4818672584776637e-02  6.1466392949802620e-02  3.9182568843745456e-02  -2.4462827896815897e-01  8.2256237761385478e-02  -7.2275534002391909e-02  1.4915334639015937e-01  5.2363268294327067e-02  -2.9469165101710160e-01  -3.2034178045783956e-01  -2.7700281921294106e-01  -7.7530306498984822e-04  4.7090644052991133e-02  -2.8347399965011444e-01  -1.6317784513034897e-01  -2.1510934097727935e-01  1.0202931778710121e-01  6.9527094922806953e-02  -1.1360519323075328e-01  -3.0286118104151605e-01  -2.7021952768729351e-01  9.2488162035399349e-02  -2.5257790426082677e-01  4.4539578314748252e-02  -8.2513734838277078e-02  6.2191874756425548e-02  1.9080527832143611e-02  -3.0814321695919406e-01  -3.2046780049645845e-01  -2.6206758602420543e-01  -2.5585665110291944e-01  -2.3274404973537891e-01  5.9198417106345172e-02  -3.0365958778266311e-01  -3.3211598511714902e-01  -2.5193870050401418e-01  7.3829678802798851e-02  -3.4850767892764457e-02  -2.9375342715274977e-01  -6.4709785893268340e-02  5.0406777663948625e-02  -6.2988749486465753e-02  1.2847698392967014e-01  -2.5971510609523396e-01  -1.6704351902270273e-01  -1.1061129336273056e-02  -1.3455537533969511e-01  1.9224433102998619e-02  -2.1765743610399160e-01  -3.1951649943617910e-01  -3.2910907643270609e-01  1.3548083611583209e-01  -2.9462157734364475e-01  1.5405983702817155e-02  -2.4335152613701144e-01  -2.7075298277242288e-01  2.9059353002208049e-02  7.6555466627102045e-03  -3.1114612703677547e-01  -2.6496488754695507e-01  1.3744182344157418e-02  -1.5205259603501310e-03  -4.5005694658691177e-02  -2.7668294501772006e-01  -2.9373905654451216e-01  -2.2294448658438720e-01  -2.4448362238586929e-01  -2.2526645339601994e-01  8.4391905771698542e-02  9.9710710669243516e-02  -2.6098949235037711e-01  1.2136057218712819e-01  1.1770277164852505e-01  5.4414795094604951e-02  6.5936984535928250e-02  -2.3592189633184346e-01  -2.3800372295942623e-01  -2.3978668064954842e-01  -3.1133239491395598e-01  2.6757752603995037e-02  1.0845856329409781e-01  -1.1482642195823324e-01  -2.3993524250157147e-01  1.3340744115370184e-01  -2.3424378069508764e-01  -2.4093063871917120e-01  1.7043671531405258e-01  5.9885970671471236e-02  -2.2973882186555722e-01  -2.0553968254728774e-01  -1.2789394866952786e-01  -1.1569146969245375e-01  1.2906496939908693e-01  -2.5135536263679991e-02  1.3028111818815782e-01  -2.4852075709717616e-01  -1.5261918964906745e-01  6.2441280467170589e-02  1.3370427661415829e-01  1.2384162381908737e-01  -2.4101104617144392e-01  -2.8283680674950945e-01  9.1768675536111274e-02  -9.3369085980922722e-02  -2.3033758939960258e-01  -1.8820921320667250e-01  -2.1807501744212099e-01  2.6538006985074483e-02  -2.4092270296239063e-01  1.4730883852409310e-01  -2.2846291953876899e-01  -3.6937760389045587e-02  -1.4151673603098630e-01  -1.4151673603098630e-01  -3.6937760389045587e-02  -6.8025346621872831e-02  -1.1449974911771589e-02  -2.9822860210339291e-01  1.1971572070834072e-01  1.2402666800631146e-01  9.1408029511570885e-02  -1.8113935411829617e-02  -1.6347728468730560e-01  -1.8153770198864709e-03  -5.7756807599782930e-03  6.0620645097414570e-02  -2.4025281839032681e-01  -2.3789426075915138e-01  -3.2694357602186516e-02  1.5880309557461714e-01  -9.2905503986864396e-02  2.3621860467015879e-02  -2.7999872335733733e-01  -1.9348173906676489e-01  -1.2217521836110749e-01  -3.0118648129217762e-01  -2.3413981011242879e-01  4.3701548491689897e-02  -1.0411084179134687e-01  -1.4175350186922961e-01  -2.2570351959364759e-01  5.1971340924505019e-02  -2.5865890952780093e-02  -6.5496374729399648e-02  -2.4018978487294068e-01  1.5409993753805931e-01  8.2941181234165579e-02  -2.2163809715263452e-02  -1.1039437428009811e-02  -1.8806311468719633e-01  9.1976394565630143e-02  9.4554057568266847e-02  8.0837202724677204e-02  -2.2021321151339127e-01  -1.8818477557202917e-01  -2.3883908008181343e-01  1.0863697026782849e-01  -2.8852167360815056e-01  5.6807995926145882e-02  1.4946204695528867e-02  6.5378913943653652e-02  1.0604010065165712e-01  -2.8377182177858790e-01  -2.0483053285230496e-01  4.6378767342066356e-02  -2.1209583553134848e-01  -2.7581610415552299e-01  1.2501091077848994e-01  -3.1725540809278585e-02  -1.0788581710922795e-01  -7.1551151097085500e-02  -7.1551151097085500e-02  -1.0788581710922795e-01  7.8093725992005078e-02  -2.5477253871696481e-01  -2.2617733675955365e-01  -5.3527676478825663e-02  -2.0211258603104185e-01  9.5677107028872027e-02  2.4573527239543841e-02  -1.9678720788088019e-01  -2.0369081107195519e-01  -2.4954284665493648e-01  6.6951521798377239e-02  6.4094359941961609e-02  8.1905119184293856e-02  -2.1706385689332716e-01  -2.7383299059579827e-02  2.2809808706990911e-02  1.0698727078896490e-01  1.1615779499023685e-01  -2.9394676914595247e-01  1.0187524044185046e-01  1.1754512986842493e-01  -2.7971915552302967e-01  -2.9536805173256098e-01  -2.7381652870929996e-01  9.6084004728283046e-02  -2.7662489302678117e-01  -3.2614712124406797e-01  -2.5717572878180012e-01  -3.0690025900717954e-01  -2.6905368112359124e-01  -2.5295340131908040e-01  5.8645498338264442e-02  -2.4920277803670615e-01  2.1845356598331417e-03  7.0258854995134026e-02  -2.9546107244358893e-01  -2.7627217127828979e-01  1.1765516095610073e-01  -2.3656691930071094e-01  5.5435549632803657e-02  -1.8839750450037002e-01  -1.6285132283583867e-01  1.4371790920112279e-01  1.2071678610520090e-01  4.1121768473549009e-02  -3.0130742409616984e-01  6.0183012520489965e-02  -2.5211354221537291e-01  -2.2973882186555722e-01  -2.3800372295942623e-01  6.0183012520489965e-02  7.4337836742393346e-02  5.1971340924505019e-02  -2.9212746959854580e-01  -1.7143594558990252e-01  1.8961282880803027e-02  -6.4755608948366935e-03  -2.5988199317633359e-01  8.2038542712012524e-02  -1.7143594558990252e-01  -1.9678720788088019e-01  -2.8451466920014884e-01  1.0675514756396297e-01  -2.8820684410128911e-01  1.1036329700495634e-01  1.1599470110977241e-01  -2.9383631956551243e-01  1.8961282880803027e-02  1.1434466099208088e-01  3.8426275033575145e-02  -2.1616571536663809e-01  7.3291523292832852e-02  6.3209185976383392e-02  6.4094359941961609e-02  -2.4191407407445759e-01  -2.4473977901252716e-01  3.8426275033575145e-02  5.4880916367040691e-02  6.9461609411642505e-02  -2.9842093073312387e-01  -2.0489093973772687e-01  1.7098709029917189e-01  7.5828926319147658e-02  1.2576249849631002e-01  7.6782872830058066e-02  6.9599518673488348e-02  7.1182177866651528e-02  9.2882392293598043e-02  1.1162506111314868e-01  6.4430933016619410e-02  3.3665305392080382e-02  -2.4334219937273652e-01  -2.4283340081306229e-01  -2.6576419397181783e-01  -1.6011218381884049e-01  -1.8033568141845324e-01  -2.6910936633835358e-01  1.3973856979764498e-01  -1.4833931200175915e-01  -3.3532653986105360e-01  -3.6220968559257612e-02  -1.4263015138145088e-01  -1.5883323574016878e-01  -1.4926257823930125e-01  -2.6194394188633778e-02  -1.6358325258997281e-01  -1.4635912083822386e-01  1.0008091311941977e-01  1.0247711304850990e-01  9.3713067219398954e-02  -2.8022082176369012e-01  -2.2140302948543794e-01  -3.0020360803176588e-01  -8.7348089248103656e-03  -1.4933664695876786e-02  -2.6626749495185142e-01  -6.2677115831882541e-02  7.6718682416495723e-02  -2.5205068893632598e-01  -2.5602115229955363e-01  -2.3927212801336008e-02  -2.7936950350460021e-01  -2.4318209696654638e-01  7.5181940459519175e-02  -4.5161429068290904e-02  -3.0526943328786005e-01  -3.0795229828044030e-01  -6.0628414491257728e-04  1.0518875960940743e-01  -1.9152136472978556e-01  1.1893486768119510e-01  8.5660939912415426e-02  -2.3195227974650443e-01  1.1980932125220121e-01  7.5500983262819663e-02  -2.9331425266211936e-01  -2.9679410603765183e-01  1.0722717319980668e-01  1.1283143983881613e-01  -2.5730788690547163e-01  -4.1338026914629414e-02  -1.6542295308268121e-01  -2.1271213544936532e-01  -2.4532023805781045e-01  -9.5410526378613386e-02  -7.7412590054107860e-02  -2.5194669033812372e-01  6.0802049374444993e-02  -2.9173547564388208e-01  -3.0202251903551985e-01  -1.1068405067204766e-01  1.9514011694174979e-02  5.2782959770400886e-02  -1.7767793