<?xml version="1.0"?>
<VTKFile type="UnstructuredGrid"  version="0.1"  >
<UnstructuredGrid>
<Piece  NumberOfPoints="85" NumberOfCells="128">
<Points>
<DataArray  type="Float64"  NumberOfComponents="3"  format="ascii">0 0 0  0.0625 0 0  0.125 0 0  0.1875 0 0  0.25 0 0  0.3125 0 0  0.375 0 0  0.4375 0 0  0.5 0 0  0.5625 0 0  0.625 0 0  0.6875 0 0  0.75 0 0  0.8125 0 0  0.875 0 0  0.9375 0 0  1 0 0  0 0.05 0  0.0625 0.05 0  0.125 0.05 0  0.1875 0.05 0  0.25 0.05 0  0.3125 0.05 0  0.375 0.05 0  0.4375 0.05 0  0.5 0.05 0  0.5625 0.05 0  0.625 0.05 0  0.6875 0.05 0  0.75 0.05 0  0.8125 0.05 0  0.875 0.05 0  0.9375 0.05 0  1 0.05 0  0 0.1 0  0.0625 0.1 0  0.125 0.1 0  0.1875 0.1 0  0.25 0.1 0  0.3125 0.1 0  0.375 0.1 0  0.4375 0.1 0  0.5 0.1 0  0.5625 0.1 0  0.625 0.1 0  0.6875 0.1 0  0.75 0.1 0  0.8125 0.1 0  0.875 0.1 0  0.9375 0.1 0  1 0.1 0  0 0.15 0  0.0625 0.15 0  0.125 0.15 0  0.1875 0.15 0  0.25 0.15 0  0.3125 0.15 0  0.375 0.15 0  0.4375 0.15 0  0.5 0.15 0  0.5625 0.15 0  0.625 0.15 0  0.6875 0.15 0  0.75 0.15 0  0.8125 0.15 0  0.875 0.15 0  0.9375 0.15 0  1 0.15 0  0 0.2 0  0.0625 0.2 0  0.125 0.2 0  0.1875 0.2 0  0.25 0.2 0  0.3125 0.2 0  0.375 0.2 0  0.4375 0.2 0  0.5 0.2 0  0.5625 0.2 0  0.625 0.2 0  0.6875 0.2 0  0.75 0.2 0  0.8125 0.2 0  0.875 0.2 0  0.9375 0.2 0  1 0.2 0  </DataArray>
</Points>
<Cells>
<DataArray  type="UInt32"  Name="connectivity"  format="ascii">0 1 18  0 17 18  1 2 19  1 18 19  2 3 20  2 19 20  3 4 21  3 20 21  4 5 22  4 21 22  5 6 23  5 22 23  6 7 24  6 23 24  7 8 25  7 24 25  8 9 26  8 25 26  9 10 27  9 26 27  10 11 28  10 27 28  11 12 29  11 28 29  12 13 30  12 29 30  13 14 31  13 30 31  14 15 32  14 31 32  15 16 33  15 32 33  17 18 35  17 34 35  18 19 36  18 35 36  19 20 37  19 36 37  20 21 38  20 37 38  21 22 39  21 38 39  22 23 40  22 39 40  23 24 41  23 40 41  24 25 42  24 41 42  25 26 43  25 42 43  26 27 44  26 43 44  27 28 45  27 44 45  28 29 46  28 45 46  29 30 47  29 46 47  30 31 48  30 47 48  31 32 49  31 48 49  32 33 50  32 49 50  34 35 52  34 51 52  35 36 53  35 52 53  36 37 54  36 53 54  37 38 55  37 54 55  38 39 56  38 55 56  39 40 57  39 56 57  40 41 58  40 57 58  41 42 59  41 58 59  42 43 60  42 59 60  43 44 61  43 60 61  44 45 62  44 61 62  45 46 63  45 62 63  46 47 64  46 63 64  47 48 65  47 64 65  48 49 66  48 65 66  49 50 67  49 66 67  51 52 69  51 68 69  52 53 70  52 69 70  53 54 71  53 70 71  54 55 72  54 71 72  55 56 73  55 72 73  56 57 74  56 73 74  57 58 75  57 74 75  58 59 76  58 75 76  59 60 77  59 76 77  60 61 78  60 77 78  61 62 79  61 78 79  62 63 80  62 79 80  63 64 81  63 80 81  64 65 82  64 81 82  65 66 83  65 82 83  66 67 84  66 83 84  </DataArray>
<DataArray  type="UInt32"  Name="offsets"  format="ascii">3 6 9 12 15 18 21 24 27 30 33 36 39 42 45 48 51 54 57 60 63 66 69 72 75 78 81 84 87 90 93 96 99 102 105 108 111 114 117 120 123 126 129 132 135 138 141 144 147 150 153 156 159 162 165 168 171 174 177 180 183 186 189 192 195 198 201 204 207 210 213 216 219 222 225 228 231 234 237 240 243 246 249 252 255 258 261 264 267 270 273 276 279 282 285 288 291 294 297 300 303 306 309 312 315 318 321 324 327 330 333 336 339 342 345 348 351 354 357 360 363 366 369 372 375 378 381 384 </DataArray>
<DataArray  type="UInt8"  Name="types"  format="ascii">5 5 5 5 5 5 5 5 5 5 5 5 5 5 5 5 5 5 5 5 5 5 5 5 5 5 5 5 5 5 5 5 5 5 5 5 5 5 5 5 5 5 5 5 5 5 5 5 5 5 5 5 5 5 5 5 5 5 5 5 5 5 5 5 5 5 5 5 5 5 5 5 5 5 5 5 5 5 5 5 5 5 5 5 5 5 5 5 5 5 5 5 5 5 5 5 5 5 5 5 5 5 5 5 5 5 5 5 5 5 5 5 5 5 5 5 5 5 5 5 5 5 5 5 5 5 5 5 </DataArray>
</Cells>
<PointData  Vectors="f_9"> 
<DataArray  type="Float64"  Name="f_9"  NumberOfComponents="3" format="ascii">0.0000000000000000e+00 0.0000000000000000e+00 0.0000000000000000e+00  -4.0556498505208193e-03 -2.9011811594710367e-03 0.0000000000000000e+00  -7.4858729239112558e-03 -7.3383454681757183e-03 0.0000000000000000e+00  -1.0501965080177120e-02 -1.3672118024762744e-02 0.0000000000000000e+00  -1.3113723615760273e-02 -2.1703122958443198e-02 0.0000000000000000e+00  -1.5335541139221079e-02 -3.1185567701124451e-02 0.0000000000000000e+00  -1.7192236747731619e-02 -4.1880897803107081e-02 0.0000000000000000e+00  -1.8714068882693780e-02 -5.3569079277209060e-02 0.0000000000000000e+00  -1.9933486797989682e-02 -6.6050894353879702e-02 0.0000000000000000e+00  -2.0883695792313146e-02 -7.9148222923359976e-02 0.0000000000000000e+00  -2.1598129765893832e-02 -9.2703986213038755e-02 0.0000000000000000e+00  -2.2110283816518403e-02 -1.0658208901522359e-01 0.0000000000000000e+00  -2.2453667425278174e-02 -1.2066739098703150e-01 0.0000000000000000e+00  -2.2661782535317899e-02 -1.3486566493693553e-01 0.0000000000000000e+00  -2.2768112573660237e-02 -1.4910344808380618e-01 0.0000000000000000e+00  -2.2806568108035205e-02 -1.6332815320673422e-01 0.0000000000000000e+00  -2.2813889964127164e-02 -1.7751140415044897e-01 0.0000000000000000e+00  0.0000000000000000e+00 0.0000000000000000e+00 0.0000000000000000e+00  -1.6990071841690249e-03 -2.0374097078918649e-03 0.0000000000000000e+00  -3.5212370885838074e-03 -6.5542943802599967e-03 0.0000000000000000e+00  -5.0907667799336758e-03 -1.2984686095758494e-02 0.0000000000000000e+00  -6.4326520518161812e-03 -2.1111017995712807e-02 0.0000000000000000e+00  -7.5690166424675683e-03 -3.0683718678401445e-02 0.0000000000000000e+00  -8.5186338541865976e-03 -4.1462539169757666e-02 0.0000000000000000e+00  -9.2990095975610428e-03 -5.3226783172305753e-02 0.0000000000000000e+00  -9.9271770272844617e-03 -6.5777010974839276e-02 0.0000000000000000e+00  -1.0419989587577439e-02 -7.8935039088826431e-02 0.0000000000000000e+00  -1.0794231192067499e-02 -9.2543775136999129e-02 0.0000000000000000e+00  -1.1066655621607817e-02 -1.0646712600246755e-01 0.0000000000000000e+00  -1.1253991705351575e-02 -1.2058996969077865e-01 0.0000000000000000e+00  -1.1372905504759301e-02 -1.3481815985169451e-01 0.0000000000000000e+00  -1.1439819998449282e-02 -1.4907851040569184e-01 0.0000000000000000e+00  -1.1470319571906910e-02 -1.6331864525241718e-01 0.0000000000000000e+00  -1.1479060865382439e-02 -1.7750794634600475e-01 0.0000000000000000e+00  0.0000000000000000e+00 0.0000000000000000e+00 0.0000000000000000e+00  5.3974186682347629e-05 -1.8216797330787027e-03 0.0000000000000000e+00  2.2878034531704333e-05 -6.2468196863464500e-03 0.0000000000000000e+00  -2.8513950115482088e-05 -1.2714264072584927e-02 0.0000000000000000e+00  -6.0646229134623434e-05 -2.0882371171479827e-02 0.0000000000000000e+00  -8.1423004523847696e-05 -3.0491319638670373e-02 0.0000000000000000e+00  -9.6905235417843688e-05 -4.1301554955985337e-02 0.0000000000000000e+00  -1.0976169693009634e-04 -5.3093584101804793e-02 0.0000000000000000e+00  -1.2094663624318798e-04 -6.5668618162439282e-02 0.0000000000000000e+00  -1.3074685887355588e-04 -7.8848743271398375e-02 0.0000000000000000e+00  -1.3923030464788012e-04 -9.2476962121773365e-02 0.0000000000000000e+00  -1.4640579137411550e-04 -1.0641720915929091e-01 0.0000000000000000e+00  -1.5227654314387793e-04 -1.2055436633385172e-01 0.0000000000000000e+00  -1.5687115059421494e-04 -1.3479430121570887e-01 0.0000000000000000e+00  -1.6028294196955860e-04 -1.4906397542480482e-01 0.0000000000000000e+00  -1.6256393415219986e-04 -1.6331152899257242e-01 0.0000000000000000e+00  -1.6232851629324315e-04 -1.7750402738901738e-01 0.0000000000000000e+00  0.0000000000000000e+00 0.0000000000000000e+00 0.0000000000000000e+00  1.7679316660843924e-03 -2.0530898662602689e-03 0.0000000000000000e+00  3.4943206896422166e-03 -6.4539929096501239e-03 0.0000000000000000e+00  5.0069955839055916e-03 -1.2885528904324751e-02 0.0000000000000000e+00  6.3055105032600233e-03 -2.1031379879045464e-02 0.0000000000000000e+00  7.4077795728460525e-03 -3.0618297988699104e-02 0.0000000000000000e+00  8.3287096386887305e-03 -4.1406309512596884e-02 0.0000000000000000e+00  9.0839393674519969e-03 -5.3177310338737432e-02 0.0000000000000000e+00  9.6898244736553889e-03 -6.5733370289350973e-02 0.0000000000000000e+00  1.0163018786937716e-02 -7.8896934617495071e-02 0.0000000000000000e+00  1.0520259976791659e-02 -9.2511125153973639e-02 0.0000000000000000e+00  1.0778293213467204e-02 -1.0643990044355547e-01 0.0000000000000000e+00  1.0953838965429414e-02 -1.2056812036086388e-01 0.0000000000000000e+00  1.1063544837640606e-02 -1.3480158034152692e-01 0.0000000000000000e+00  1.1123848182412886e-02 -1.4906711193135450e-01 0.0000000000000000e+00  1.1150592403159118e-02 -1.6331305976649416e-01 0.0000000000000000e+00  1.1159128739848066e-02 -1.7750995592238916e-01 0.0000000000000000e+00  0.0000000000000000e+00 0.0000000000000000e+00 0.0000000000000000e+00  3.7558248282673194e-03 -2.7888035745504912e-03 0.0000000000000000e+00  7.3033530973853926e-03 -7.1666598028983569e-03 0.0000000000000000e+00  1.0372386722764823e-02 -1.3503615333784443e-02 0.0000000000000000e+00  1.2983870074118756e-02 -2.1556962318988508e-02 0.0000000000000000e+00  1.5184544830424151e-02 -3.1059482631645013e-02 0.0000000000000000e+00  1.7015618203621616e-02 -4.1769944015770839e-02 0.0000000000000000e+00  1.8512738946496202e-02 -5.3470543068329823e-02 0.0000000000000000e+00  1.9709797796654088e-02 -6.5963699893886285e-02 0.0000000000000000e+00  2.0640288290971299e-02 -7.9072022069633860e-02 0.0000000000000000e+00  2.1337660631546771e-02 -9.2638686010806617e-02 0.0000000000000000e+00  2.1835388312641188e-02 -1.0652766498173433e-01 0.0000000000000000e+00  2.2166983826719923e-02 -1.2062382567601058e-01 0.0000000000000000e+00  2.2366045780737098e-02 -1.3483298113929837e-01 0.0000000000000000e+00  2.2466405605529888e-02 -1.4908201840564092e-01 0.0000000000000000e+00  2.2502455570288554e-02 -1.6331946810533823e-01 0.0000000000000000e+00  2.2509143373249441e-02 -1.7751889713939339e-01 0.0000000000000000e+00  </DataArray> 
</PointData> 
</Piece>
</UnstructuredGrid>
</VTKFile>