<?xml version="1.0"?>
<VTKFile type="UnstructuredGrid"  version="0.1"  >
<UnstructuredGrid>
<Piece  NumberOfPoints="2486" NumberOfCells="4758">
<Points>
<DataArray  type="Float64"  NumberOfComponents="3"  format="ascii">0 0 0  1.5 -0.11 0  3 -0.11 0  3 0.11 0  1.5 0.11 0  0 1 0  3 0.89 0  1.5 0.89 0  -1 1 0  -1 0 0  0.75 0.055 0  0.75 0.9450000000000001 0  0.75 -0.055 0  2.25 0.11 0  2.25 0.89 0  2.25 -0.11 0  0 0.5 0  -0.5 1 0  -1 0.5 0  -0.5 0 0  1.094383333333333 0.5000000000000001 0  1.875 0.4999999999999999 0  3 0.5 0  -0.5 0.5 0  0.5070166666666667 0.5 0  2.625 0.89 0  2.4375 0.4999999999999999 0  1.875 -0.11 0  1.875 0.11 0  2.625 -0.11 0  2.625 0.11 0  1.4847 0.4999999999999999 0  1.125 0.0825 0  1.125 -0.0825 0  1.125 0.9175 0  0.375 -0.0275 0  0.375 0.0275 0  0.375 0.9725 0  1.875 0.89 0  -0.25 0 0  0 0.25 0  -1 0.25 0  -0.75 0 0  -0.75 1 0  -1 0.75 0  0 0.75 0  -0.25 1 0  0.8007 0.6284781906991261 0  0.7502240492128783 0.3439604277830669 0  0.2871696633386244 0.3067325786606029 0  0.2535083333333333 0.625 0  2.15625 0.3951442307692308 0  2.71875 0.3951442307692308 0  -0.625 0.75 0  -0.2916666666666666 0.2916666666666666 0  -0.625 0.25 0  -0.34375 0.734375 0  1.289541666666667 0.6955610000000001 0  1.289541666666667 0.3044390000000001 0  1.67985 0.6876442307692306 0  2.779101533575318 0.662886089976267 0  2.0625 0.695 0  1.67985 0.3123557692307692 0  0.5708508394634532 0.7539827192183139 0  -0.75 0.46875 0  0.5625 0.04125 0  0.5625 -0.04125 0  0.5312392005167818 0.2701993799038583 0  0.9375 0.06875000000000001 0  0.9375 -0.06875000000000001 0  1.015941666666667 0.284375 0  -0.2734375 0.5182291666666666 0  0.1875 0.9862500000000001 0  2.8125 0.11 0  2.8125 -0.11 0  2.4375 0.11 0  2.4375 -0.11 0  2.0625 0.11 0  2.0625 -0.11 0  1.6875 0.11 0  1.6875 -0.11 0  0.9375 0.93125 0  1.01335747198695 0.7146849024340032 0  2.560965464181646 0.6807137191434397 0  2.28635 0.6674038461538462 0  1.3125 0.09625 0  1.3125 -0.09625 0  0.1875 0.01375 0  0.1875 -0.01375 0  1.96875 0.2988069408777868 0  2.34375 0.2988069408777868 0  3 0.305 0  1.484772131450611 0.695364224460634 0  1.484772131450611 0.304635775539366 0  1.289541666666667 0.5004022521145719 0  3 0.6950000000000001 0  2.544766118608008 0.2943630981386847 0  1.871175 0.6913221153846153 0  0.9122376534229071 0.4441817639934367 0  -0.8125 0.6649305555555556 0  0.5625 0.95875 0  1.3125 0.9037500000000001 0  1.672488572485207 0.4999999999999999 0  2.4375 0.89 0  2.0625 0.89 0  1.6875 0.89 0  -0.8125 0.1875 0  2.8125 0.89 0  0.3766363285925735 0.7769401789276308 0  0.1814836777190746 0.7984950970483535 0  -0.1289930555555556 0.625 0  -0.4473039215686274 0.1825980392156863 0  -0.1309523809523809 0.375 0  -0.1614583333333333 0.1614583333333333 0  -0.125 1 0  0 0.875 0  -0.178679435483871 0.821320564516129 0  -0.8442089083510262 0.8442089083510262 0  0 0.375 0  0.1791575019517981 0.4562225424860679 0  0.8336637017255101 0.1994154310157715 0  0.8617954428296231 0.7831644799633584 0  -1 0.375 0  0.3451828364971285 0.4624157146531082 0  2.604535825777278 0.5184127072218815 0  -0.4457323438634713 0.3459343228031954 0  0.6372117479565959 0.6022908818469848 0  2.159577956386147 0.5607680853947143 0  0.6753274893725389 0.2043702708792219 0  0.2718731069879366 0.1484917228917734 0  -0.4793074324324325 0.8334037162162162 0  -0.6708984375 0.6019965277777778 0  0.4597286121642561 0.6468982047134879 0  0 0.125 0  2.68827881187708 0.2471788540188583 0  2.846141330101734 0.2652967979791019 0  2.201164404585799 0.2519275089004319 0  2.836359011709165 0.5093068845278468 0  2.013601828922982 0.4421454529359434 0  2.298898171077018 0.4421454529359434 0  0.13694843700799 0.3119584733217119 0  0.7131685409441157 0.8000252283219255 0  1.821883432257483 0.2540531784013184 0  1.59375 1.387778780781446e-17 0  1.96875 1.387778780781446e-17 0  2.15625 -1.387778780781446e-17 0  2.34375 1.387778780781446e-17 0  2.53125 -1.387778780781446e-17 0  2.71875 1.387778780781446e-17 0  3 0 0  1.78125 -1.387778780781446e-17 0  0.7740760185064572 0.486465198900063 0  0.6111837054779449 0.3948029886187454 0  0.9714011846291715 0.5762171165997888 0  0.4199125993307094 0.1702268985733777 0  -0.753125 0.321875 0  -0.3062406386165577 0.1468843613834422 0  -0.375 1 0  0 0.625 0  -0.3939144736842105 0.598547149122807 0  -0.3108739190968454 0.8721282949753572 0  -0.5817373642600167 0.3846186821300083 0  -0.7048572593171034 0.8663213703414483 0  -0.5727211097204838 0.119889445139758 0  -0.532258721798014 0.6401206391009929 0  1.4138125 4.163336342344337e-17 0  1.155830640482634 0.7683936467866901 0  1.21133750003992 0.1904545449101797 0  1.19216404103705 0.402420626057286 0  1.19176095896295 0.597981626057286 0  1.386919292296283 0.402420626057286 0  1.387058646597614 0.597981626057286 0  2.425265226316374 0.6408922172528491 0  2.71875 0.7877738236589985 0  0.135655219953553 0.1400017752026174 0  1.578596885371184 0.5976499557264942 0  1.578596885371184 0.4023500442735057 0  1.586025147146553 0.7853559995513051 0  1.586025147146553 0.2146440004486949 0  1.773744286242603 0.410005826923077 0  1.777352856878698 0.5937470865384615 0  1.78125 0.7924291379100935 0  2.15625 0.7925 0  1.96875 0.7925 0  1.988961503884934 0.5780658616491015 0  2.877114748342798 0.764485334944998 0  1.399144157736092 0.7999771509467053 0  1.399144157736092 0.2000228490532946 0  2.34375 0.7910433368998173 0  0.4501094590731608 0.3778246776625377 0  -0.8659517426273459 0.3977463136729223 0  -0.875 0 0  -1 0.125 0  2.896142121213328 0.3895024491983984 0  0.28125 0.9793750000000001 0  0.46875 0.965625 0  1.21875 -0.08937500000000001 0  1.21875 0.08937500000000001 0  0.8901303088876997 0.3162836579923611 0  0.1267541666666667 0.580073025835633 0  -0.8681525617639529 0.5391545058883769 0  -0.1483856872302484 0.5001443079909847 0  -0.625 0 0  -0.375 0 0  -0.875 1 0  -0.125 0 0  -1 0.875 0  -0.625 1 0  -1 0.625 0  -0.6946518160894539 0.1464554482683619 0  2.898148016482 0.6198060768784698 0  -0.3368172572848583 0.4093140800880537 0  2.46422691939076 0.7592464239796078 0  -0.2231675762042645 0.7056133541213269 0  1.03125 0.075625 0  1.03125 -0.075625 0  2.076767053489867 0.2347628814225466 0  0.4827846480824715 0.8419466462734392 0  -0.6341667084936641 0.4900882883376927 0  2.720341593786231 0.5111656210040152 0  2.531070243560082 0.4180139322870758 0  1.053166748634761 0.8249064831539396 0  0.567295429670854 0.158513637263381 0  0.9049489457521325 0.6767120396115525 0  0.950871087235459 0.1859663129476055 0  1.076592493714973 0.3843915374554961 0  1.134524010423599 0.2808635614119002 0  1.070470833333333 0.1834375 0  -0.7604601461971343 0.7665781777900219 0  -0.5907347052814409 0.859096497234703 0  2.665955311258193 0.6218998416071365 0  2.273739267930041 0.5537226580131959 0  2.173413088872169 0.6729936666935236 0  0.1598974982340055 0.6878361370653286 0  0.84375 -0.061875 0  0.84375 0.061875 0  1.887870640431103 0.3835584471389212 0  0.2868589992280149 0.8583277302702175 0  2.42004783132493 0.3856933034542729 0  1.079061772075075 0.6126065999237753 0  2.830158333333333 -1.387778780781446e-17 0  2.608371135257331 0.7806485277607667 0  0.65625 0.951875 0  3 0.2075 0  0.1151276703345761 0.8945952185372313 0  0.362624580489947 0.5793882459178553 0  2.516319600931401 0.581729531333848 0  -0.8579141681780026 0.2878719580321406 0  -0.1800595238095238 0.2730654761904762 0  0.60222526818285 0.8578161570388642 0  0.8679699448850886 0.5432905449262235 0  2.53125 0.11 0  2.442792854425427 0.230306842050372 0  2.34375 0.11 0  0.1986992777160928 0.2255108581830463 0  0.6653207842432338 0.7049492272481978 0  2.90625 0.11 0  2.250724084124319 0.3483848612293553 0  2.061775915875681 0.3483848612293554 0  1.96875 0.11 0  2.295576800764281 0.2050480769230769 0  1.916443050020495 0.207100645173101 0  0.65625 0.048125 0  0.65625 -0.048125 0  -0.4559331695681008 0.723105436888684 0  0.3959392018451636 0.2797091171774029 0  1.261900456782561 0.8039695542726953 0  0.6627636857048536 0.4937090798614457 0  -0.2358128762540495 0.3805897987620613 0  1.27243125 0 0  -0.7695772529441884 0.5707379647297427 0  -0.9153083204732511 0.6875 0  -0.5337427384224719 0.2949335326481405 0  2.53125 0.89 0  -0.1098425368958015 0.7342945621870717 0  1.721893975103783 0.2126227416642119 0  2.90625 -0.11 0  -0.3021057293002611 0.6418173795459495 0  2.595489121964939 0.2067972535251948 0  2.619875963910532 0.3652663638220494 0  0.656857383884845 0.304168143165384 0  0.46875 -0.034375 0  0.46875 0.034375 0  2.15625 0.11 0  0.3657820726759922 0.6784371662555774 0  0.2736174875952295 0.738442510468524 0  -0.3961952022692456 0.4946284914468091 0  -0.7787948732778861 0.09456837557403797 0  -0.9166666666666666 0.1875 0  0.07965531387692103 0.4375 0  0.7948385434194206 0.8564425963419738 0  -0.4068704224847951 0.9040023053789293 0  0.4693953586302065 0.7446424402859765 0  -0.393607115769432 0.09824630723118558 0  0.9516859192934002 0.8306041749057135 0  0.3835577527856151 0.8747848497498005 0  1.683512530524934 0.792343867075897 0  1.38716431541669 0.2971792626997513 0  1.387157034460467 0.6955969508880405 0  1.289479252694208 0.597981626057286 0  1.387120418780798 0.5000000000000001 0  1.191962085447465 0.5004022521145719 0  3 0.5975 0  3 0.4025 0  3 0.7925 0  0.09375 0.006875 0  0.09375 -0.006875 0  1.289541666666667 0.4018184872874161 0  0.7800457068308927 0.7260442637475403 0  -0.1875 0.9213734559124619 0  -0.0985447220284108 0.8788004138970833 0  -0.9092261904761905 0.09077380952380952 0  0.28125 0.020625 0  0.28125 -0.020625 0  1.482758743922094 0.4041643460286588 0  1.482824228116016 0.5957726865915347 0  1.775513914027358 0.6894096148192219 0  1.87301394285134 0.5956595871038549 0  1.966768082283951 0.6967721945037992 0  1.008858015450243 0.453988246515258 0  0.8324408619627667 0.3921150434834321 0  -0.361374766296655 0.2255589031291991 0  -0.2670314939447324 0.7888651642865234 0  -0.6822915278976419 0.3938386495297371 0  2.104819946377027 0.4790230009147762 0  1.305499963764833 0.19015239
[...]
<CellData  Scalars="f_72"> 
<DataArray  type="Float64"  Name="f_72"  format="ascii">2.0000000000000000e+00   1.0000000000000000e+00   2.0000000000000000e+00   2.0000000000000000e+00   2.0000000000000000e+00   2.0000000000000000e+00   2.0000000000000000e+00   2.0000000000000000e+00   2.0000000000000000e+00   1.0000000000000000e+00   2.0000000000000000e+00   1.0000000000000000e+00   2.0000000000000000e+00   2.0000000000000000e+00   2.0000000000000000e+00   2.0000000000000000e+00   2.0000000000000000e+00   1.0000000000000000e+00   1.0000000000000000e+00   2.0000000000000000e+00   2.0000000000000000e+00   2.0000000000000000e+00   2.0000000000000000e+00   1.0000000000000000e+00   1.0000000000000000e+00   2.0000000000000000e+00   1.0000000000000000e+00   1.0000000000000000e+00   2.0000000000000000e+00   2.0000000000000000e+00   2.0000000000000000e+00   2.0000000000000000e+00   2.0000000000000000e+00   2.0000000000000000e+00   2.0000000000000000e+00   1.0000000000000000e+00   1.0000000000000000e+00   2.0000000000000000e+00   2.0000000000000000e+00   2.0000000000000000e+00   2.0000000000000000e+00   1.0000000000000000e+00   2.0000000000000000e+00   1.0000000000000000e+00   1.0000000000000000e+00   1.0000000000000000e+00   1.0000000000000000e+00   1.0000000000000000e+00   1.0000000000000000e+00   1.0000000000000000e+00   1.0000000000000000e+00   1.0000000000000000e+00   1.0000000000000000e+00   2.0000000000000000e+00   2.0000000000000000e+00   2.0000000000000000e+00   1.0000000000000000e+00   2.0000000000000000e+00   2.0000000000000000e+00   2.0000000000000000e+00   2.0000000000000000e+00   1.0000000000000000e+00   2.0000000000000000e+00   2.0000000000000000e+00   2.0000000000000000e+00   1.0000000000000000e+00   1.0000000000000000e+00   1.0000000000000000e+00   1.0000000000000000e+00   1.0000000000000000e+00   1.0000000000000000e+00   1.0000000000000000e+00   2.0000000000000000e+00   2.0000000000000000e+00   2.0000000000000000e+00   2.0000000000000000e+00   2.0000000000000000e+00   2.0000000000000000e+00   2.0000000000000000e+00   2.0000000000000000e+00   2.0000000000000000e+00   1.0000000000000000e+00   2.0000000000000000e+00   2.0000000000000000e+00   2.0000000000000000e+00   2.0000000000000000e+00   2.0000000000000000e+00   2.0000000000000000e+00   2.0000000000000000e+00   2.0000000000000000e+00   1.0000000000000000e+00   1.0000000000000000e+00   2.0000000000000000e+00   1.0000000000000000e+00   1.0000000000000000e+00   1.0000000000000000e+00   1.0000000000000000e+00   1.0000000000000000e+00   2.0000000000000000e+00   2.0000000000000000e+00   2.0000000000000000e+00   2.0000000000000000e+00   2.0000000000000000e+00   2.0000000000000000e+00   1.0000000000000000e+00   2.0000000000000000e+00   1.0000000000000000e+00   2.0000000000000000e+00   2.0000000000000000e+00   2.0000000000000000e+00   2.0000000000000000e+00   2.0000000000000000e+00   2.0000000000000000e+00   2.0000000000000000e+00   2.0000000000000000e+00   2.0000000000000000e+00   2.0000000000000000e+00   2.0000000000000000e+00   2.0000000000000000e+00   2.0000000000000000e+00   1.0000000000000000e+00   2.0000000000000000e+00   2.0000000000000000e+00   2.0000000000000000e+00   2.0000000000000000e+00   2.0000000000000000e+00   1.0000000000000000e+00   1.0000000000000000e+00   2.0000000000000000e+00   2.0000000000000000e+00   2.0000000000000000e+00   2.0000000000000000e+00   2.0000000000000000e+00   2.0000000000000000e+00   2.0000000000000000e+00   2.0000000000000000e+00   2.0000000000000000e+00   1.0000000000000000e+00   2.0000000000000000e+00   2.0000000000000000e+00   2.0000000000000000e+00   1.0000000000000000e+00   1.0000000000000000e+00   1.0000000000000000e+00   1.0000000000000000e+00   1.0000000000000000e+00   1.0000000000000000e+00   1.0000000000000000e+00   1.0000000000000000e+00   1.0000000000000000e+00   1.0000000000000000e+00   1.0000000000000000e+00   1.0000000000000000e+00   1.0000000000000000e+00   2.0000000000000000e+00   1.0000000000000000e+00   2.0000000000000000e+00   2.0000000000000000e+00   2.0000000000000000e+00   2.0000000000000000e+00   2.0000000000000000e+00   2.0000000000000000e+00   1.0000000000000000e+00   1.0000000000000000e+00   2.0000000000000000e+00   2.0000000000000000e+00   2.0000000000000000e+00   2.0000000000000000e+00   1.0000000000000000e+00   1.0000000000000000e+00   2.0000000000000000e+00   2.0000000000000000e+00   2.0000000000000000e+00   2.0000000000000000e+00   2.0000000000000000e+00   2.0000000000000000e+00   2.0000000000000000e+00   2.0000000000000000e+00   1.0000000000000000e+00   1.0000000000000000e+00   1.0000000000000000e+00   2.0000000000000000e+00   2.0000000000000000e+00   2.0000000000000000e+00   2.0000000000000000e+00   2.0000000000000000e+00   2.0000000000000000e+00   2.0000000000000000e+00   2.0000000000000000e+00   2.0000000000000000e+00   2.0000000000000000e+00   2.0000000000000000e+00   2.0000000000000000e+00   2.0000000000000000e+00   2.0000000000000000e+00   2.0000000000000000e+00   2.0000000000000000e+00   1.0000000000000000e+00   2.0000000000000000e+00   1.0000000000000000e+00   1.0000000000000000e+00   1.0000000000000000e+00   1.0000000000000000e+00   1.0000000000000000e+00   1.0000000000000000e+00   1.0000000000000000e+00   1.0000000000000000e+00   1.0000000000000000e+00   2.0000000000000000e+00   1.0000000000000000e+00   2.0000000000000000e+00   2.0000000000000000e+00   2.0000000000000000e+00   2.0000000000000000e+00   2.0000000000000000e+00   2.0000000000000000e+00   2.0000000000000000e+00   2.0000000000000000e+00   2.0000000000000000e+00   1.0000000000000000e+00   1.0000000000000000e+00   1.0000000000000000e+00   1.0000000000000000e+00   2.0000000000000000e+00   2.0000000000000000e+00   1.0000000000000000e+00   1.0000000000000000e+00   1.0000000000000000e+00   1.0000000000000000e+00   1.0000000000000000e+00   1.0000000000000000e+00   1.0000000000000000e+00   1.0000000000000000e+00   1.0000000000000000e+00   1.0000000000000000e+00   1.0000000000000000e+00   2.0000000000000000e+00   2.0000000000000000e+00   2.0000000000000000e+00   2.0000000000000000e+00   2.0000000000000000e+00   2.0000000000000000e+00   2.0000000000000000e+00   2.0000000000000000e+00   2.0000000000000000e+00   2.0000000000000000e+00   2.0000000000000000e+00   2.0000000000000000e+00   2.0000000000000000e+00   2.0000000000000000e+00   2.0000000000000000e+00   2.0000000000000000e+00   2.0000000000000000e+00   2.0000000000000000e+00   2.0000000000000000e+00   2.0000000000000000e+00   2.0000000000000000e+00   1.0000000000000000e+00   2.0000000000000000e+00   2.0000000000000000e+00   2.0000000000000000e+00   2.0000000000000000e+00   2.0000000000000000e+00   2.0000000000000000e+00   2.0000000000000000e+00   2.0000000000000000e+00   2.0000000000000000e+00   2.0000000000000000e+00   2.0000000000000000e+00   2.0000000000000000e+00   2.0000000000000000e+00   2.0000000000000000e+00   2.0000000000000000e+00   2.0000000000000000e+00   1.0000000000000000e+00   2.0000000000000000e+00   2.0000000000000000e+00   2.0000000000000000e+00   2.0000000000000000e+00   1.0000000000000000e+00   1.0000000000000000e+00   1.0000000000000000e+00   2.0000000000000000e+00   2.0000000000000000e+00   2.0000000000000000e+00   2.0000000000000000e+00   2.0000000000000000e+00   2.0000000000000000e+00   2.0000000000000000e+00   1.0000000000000000e+00   2.0000000000000000e+00   2.0000000000000000e+00   2.0000000000000000e+00   2.0000000000000000e+00   1.0000000000000000e+00   1.0000000000000000e+00   1.0000000000000000e+00   1.0000000000000000e+00   1.0000000000000000e+00   1.0000000000000000e+00   1.0000000000000000e+00   1.0000000000000000e+00   1.0000000000000000e+00   1.0000000000000000e+00   1.0000000000000000e+00   1.0000000000000000e+00   2.0000000000000000e+00   2.0000000000000000e+00   1.0000000000000000e+00   1.0000000000000000e+00   1.0000000000000000e+00   1.0000000000000000e+00   1.0000000000000000e+00   2.0000000000000000e+00   2.0000000000000000e+00   2.0000000000000000e+00   2.0000000000000000e+00   1.0000000000000000e+00   1.0000000000000000e+00   2.0000000000000000e+00   2.0000000000000000e+00   2.0000000000000000e+00   2.0000000000000000e+00   2.0000000000000000e+00   2.0000000000000000e+00   2.0000000000000000e+00   2.0000000000000000e+00   2.0000000000000000e+00   2.0000000000000000e+00   2.0000000000000000e+00   2.0000000000000000e+00   1.0000000000000000e+00   2.0000000000000000e+00   2.0000000000000000e+00   2.0000000000000000e+00   1.0000000000000000e+00   1.0000000000000000e+00   1.0000000000000000e+00   1.0000000000000000e+00   2.0000000000000000e+00   2.0000000000000000e+00   2.0000000000000000e+00   2.0000000000000000e+00   2.0000000000000000e+00   2.0000000000000000e+00   2.0000000000000000e+00   2.0000000000000000e+00   2.0000000000000000e+00   1.0000000000000000e+00   1.0000000000000000e+00   2.0000000000000000e+00   2.0000000000000000e+00   2.0000000000000000e+00   2.0000000000000000e+00   2.0000000000000000e+00   2.0000000000000000e+00   2.0000000000000000e+00   2.0000000000000000e+00   2.0000000000000000e+00   1.0000000000000000e+00   2.0000000000000000e+00   2.0000000000000000e+00   2.0000000000000000e+00   2.0000000000000000e+00   2.0000000000000000e+00   2.0000000000000000e+00   2.0000000000000000e+00   2.0000000000000000e+00   2.0000000000000000e+00   2.0000000000000000e+00   2.0000000000000000e+00   1.0000000000000000e+00   1.0000000000000000e+00   1.0000000000000000e+00   2.0000000000000000e+00   2.0000000000000000e+00   2.0000000000000000e+00   2.0000000000000000e+00   2.0000000000000000e+00   2.0000000000000000e+00   2.0000000000000000e+00   1.0000000000000000e+00   2.0000000000000000e+00   2.0000000000000000e+00   2.0000000000000000e+00   2.0000000000000000e+00   2.0000000000000000e+00   2.0000000000000000e+00   2.0000000000000000e+00   2.0000000000000000e+00   2.0000000000000000e+00   2.0000000000000000e+00   2.0000000000000000e+00   2.0000000000000000e+00   2.0000000000000000e+00   2.0000000000000000e+00   2.0000000000000000e+00   2.0000000000000000e+00   2.0000000000000000e+00   2.0000000000000000e+00   1.0000000000000000e+00   1.0000000000000000e+00   1.0000000000000000e+00   1.0000000000000000e+00   2.0000000000000000e+00   2.0000000000000000e+00   2.0000000000000000e+00   2.0000000000000000e+00   2.0000000000000000e+00   2.0000000000000000e+00   1.0000000000000000e+00   1.0000000000000000e+00   1.0000000000000000e+00   1.0000000000000000e+00   1.0000000000000000e+00   1.0000000000000000e+00   1.0000000000000000e+00   1.0000000000000000e+00   1.0000000000000000e+00   2.0000000000000000e+00   2.0000000000000000e+00   1.0000000000000000e+00   2.0000000000000000e+00   2.0000000000000000e+00   2.0000000000000000e+00   1.0000000000000000e+00   1.0000000000000000e+00   1.0000000000000000e+00   2.0000000000000000e+00   2.0000000000000000e+00   2.0000000000000000e+00   2.0000000000000000e+00   2.0000000000000000e+00   2.0000000000000000e+00   2.0000000000000000e+00   1.0000000000000000e+00   1.0000000000000000e+00   2.0000000000000000e+00   2.0000000000000000e+00   2.0000000000000000e+00   2.0000000000000000e+00   2.0000000000000000e+00   2.0000000000000000e+00   2.0000000000000000e+00   1.0000000000000000e+00   1.0000000000000000e+00   1.0000000000000000e+00   1.0000000000000000e+00   1.0000000000000000e+00   2.0000000000000000e+00   2.0000000000000000e+00   1.0000000000000000e+00   2.0000000000000000e+00   2.0000000000000000e+00   1.0000000000000000e+00   1.0000000000000000e+00   2.0000000000000000e+00   2.0000000000000000e+00   2.0000000000000000e+00   2.0000000000000000e+00   2.0000000000000000e+00   2.0000000000000000e+00   2.0000000000000000e+00   2.0000000000000000e+00   2.0000000000000000e+00   2.0000000000000000e+00   2.0000000000000000e+00   2.0000000000000000e+00   2.0000000000000000e+00   2.0000000000000000e+00   2.0000000000000000e+00   2.0000000000000000e+00   2.0000000000000000e+00   2.0000000000000000e+00   2.0000000000000000e+00   2.0000000000000000e+00   1.0000000000000000e+00   1.0000000000000000e+00   2.0000000000000000e+00   2.0000000000000000e+00   2.0000000000000000e+00   2.0000000000000000e+00   1.0000000000000000e+00   2.0000000000000000e+00   2.0000000000000000e+00   1.0000000000000000e+00   2.0000000000000000e+00   2.0000000000000000e+00   2.0000000000000000e+00   2.0000000000000000e+00   2.0000000000000000e+00   2.0000000000000000e+00   2.0000000000000000e+00   2.0000000000000000e+00   2.0000000000000000e+00   2.0000000000000000e+00   2.0000000000000000e+00   2.0000000000000000e+00   2.0000000000000000e+00   2.0000000000000000e+00   1.0000000000000000e+00   1.0000000000000000e+00   1.0000000000000000e+00   1.0000000000000000e+00   1.0000000000000000e+00   1.0000000000000000e+00   2.0000000000000000e+00   2.0000000000000000e+00   2.0000000000000000e+00   2.0000000000000000e+00   2.0000000000000000e+00   2.0000000000000000e+00   2.0000000000000000e+00   2.0000000000000000e+00   2.0000000000000000e+00   2.0000000000000000e+00   2.0000000000000000e+00   2.0000000000000000e+00   1.0000000000000000e+00   2.0000000000000000e+00   2.0000000000000000e+00   2.0000000000000000e+00   2.0000000000000000e+00   2.0000000000000000e+00   2.0000000000000000e+00   2.0000000000000000e+00   2.0000000000000000e+00   2.0000000000000000e+00   2.0000000000000000e+00   2.0000000000000000e+00   2.0000000000000000e+00   2.0000000000000000e+00   2.0000000000000000e+00   2.0000000000000000e+00   2.0000000000000000e+00   2.0000000000000000e+00   2.0000000000000000e+00   2.0000000000000000e+00   2.0000000000000000e+00   2.0000000000000000e+00   2.0000000000000000e+00   1.0000000000000000e+00   2.0000000000000000e+00   2.0000000000000000e+00   2.0000000000000000e+00   1.0000000000000000e+00   1.0000000000000000e+00   1.0000000000000000e+00   1.0000000000000000e+00   2.0000000000000000e+00   1.0000000000000000e+00   1.0000000000000000e+00   1.0000000000000000e+00   1.0000000000000000e+00   1.0000000000000000e+00   2.0000000000000000e+00   1.0000000000000000e+00   1.0000000000000000e+00   2.0000000000000000e+00   1.0000000000000000e+00   1.0000000000000000e+00   1.0000000000000000e+00   1.0000000000000000e+00   1.0000000000000000e+00   1.0000000000000000e+00   1.0000000000000000e+00   1.0000000000000000e+00   1.0000000000000000e+00   2.0000000000000000e+00   2.0000000000000000e+00   1.0000000000000000e+00   1.0000000000000000e+00   2.0000000000000000e+00   2.0000000000000000e+00   2.0000000000000000e+00   2.0000000000000000e+00   1.0000000000000000e+00   1.0000000000000000e+00   2.0000000000000000e+00   2.0000000000000000e+00   1.0000000000000000e+00   1.0000000000000000e+00   1.0000000000000000e+00   1.0000000000000000e+00   1.0000000000000000e+00   1.0000000000000000e+00   1.0000000000000000e+00   1.0000000000000000e+00   1.0000000000000000e+00   2.0000000000000000e+00   2.0000000000000000e+00   2.0000000000000000e+00   2.0000000000000000e+00   2.0000000000000000e+00   2.0000000000000000e+00   1.0000000000000000e+00   1.0000000000000000e+00   1.0000000000000000e+00   1.0000000000000000e+00   2.0000000000000000e+00   2.0000000000000000e+00   2.0000000000000000e+00   2.0000000000000000e+00   1.0000000000000000e+00   1.0000000000000000e+00   1.0000000000000000e+00   1.0000000000000000e+00   1.0000000000000000e+00   1.0000000000000000e+00   2.0000000000000000e+00   2.0000000000000000e+00   1.0000000000000000e+00   1.0000000000000000e+00   1.0000000000000000e+00   2.0000000000000000e+00   1.0000000000000000e+00   2.0000000000000000e+00   1.0000000000000000e+00   1.0000000000000000e+00   1.0000000000000000e+00   1.0000000000000000e+00   2.0000000000000000e+00   2.0000000000000000e+00   1.0000000000000000e+00   1.0000000000000000e+00   2.0000000000000000e+00   2.0000000000000000e+00   2.0000000000000000e+00   2.0000000000000000e+00   1.0000000000000000e+00   1.0000000000000000e+00   2.0000000000000000e+00   2.0000000000000000e+00   2.0000000000000000e+00   2.0000000000000000e+00   2.0000000000000000e+00   2.0000000000000000e+00   2.0000000000000000e+00   2.0000000000000000e+00   2.0000000000000000e+00   2.0000000000000000e+00   1.0000000000000000e+00   1.0000000000000000e+00   2.0000000000000000e+00   2.0000000000000000e+00   2.0000000000000000e+00   2.0000000000000000e+00   1.0000000000000000e+00   1.0000000000000000e+00   1.0000000000000000e+00   1.0000000000000000e+00   2.0000000000000000e+00   2.0000000000000000e+00   2.0000000000000000e+00   2.0000000000000000e+00   1.0000000000000000e+00   1.0000000000000000e+00   2.0000000000000000e+00   2.0000000000000000e+00   1.0000000000000000e+00   1.0000000000000000e+00   2.0000000000000000e+00   2.0000000000000000e+00   1.0000000000000000e+00   1.0000000000000000e+00   2.0000000000000000e+00   2.0000000000000000e+00   1.0000000000000000e+00   1.0000000000000000e+00   2.0000000000000000e+00   2.0000000000000000e+00   2.0000000000000000e+00   2.0000000000000000e+00   1.0000000000000000e+00   1.0000000000000000e+00   2.0000000000000000e+00   2.0000000000000000e+00   2.0000000000000000e+00   2.0000000000000000e+00   2.0000000000000000e+00   2.0000000000000000e+00   2.0000000000000000e+00   2.0000000000000000e+00   2.0000000000000000e+00   2.0000000000000000e+00   2.0000000000000000e+00   2.0000000000000000e+00   2.0000000000000000e+00   2.0000000000000000e+00   2.0000000000000000e+00   2.0000000000000000e+00   2.0000000000000000e+00   2.0000000000000000e+00   2.0000000000000000e+00   2.0000000000000000e+00   1.0000000000000000e+00   1.0000000000000000e+00   1.0000000000000000e+00   1.0000000000000000e+00   1.0000000000000000e+00   1.0000000000000000e+00   2.0000000000000000e+00   2.0000000000000000e+00   1.0000000000000000e+00   1.0000000000000000e+00   1.0000000000000000e+00   1.0000000000000000e+00   1.0000000000000000e+00   1.0000000000000000e+00   2.0000000000000000e+00   2.0000000000000000e+00   2.0000000000000000e+00   2.0000000000000000e+00   2.0000000000000000e+00   1.0000000000000000e+00   1.0000000000000000e+00   2.0000000000000000e+00   2.0000000000000000e+00   2.0000000000000000e+00   2.0000000000000000e+00   2.0000000000000000e+00   2.0000000000000000e+00   2.0000000000000000e+00   2.0000000000000000e+00   2.0000000000000000e+00   2.0000000000000000e+00   1.0000000000000000e+00   1.0000000000000000e+00   1.0000000000000000e+00   1.0000000000000000e+00   2.0000000000000000e+00   2.0000000000000000e+00   2.0000000000000000e+00   2.0000000000000000e+00   2.0000000000000000e+00   2.0000000000000000e+00   2.0000000000000000e+00   2.0000000000000000e+00   2.0000000000000000e+00   2.0000000000000000e+00   1.0000000000000000e+00   1.0000000000000000e+00   1.0000000000000000e+00   1.0000000000000000e+00   1.0000000000000000e+00   1.0000000000000000e+00   2.0000000000000000e+00   2.0000000000000000e+00   2.0000000000000000e+00   2.0000000000000000e+00   2.0000000000000000e+00   2.0000000000000000e+00   1.0000000000000000e+00   1.0000000000000000e+00   2.0000000000000000e+00   2.0000000000000000e+00   1.0000000000000000e+00   1.0000000000000000e+00   2.0000000000000000e+00   2.0000000000000000e+00   2.0000000000000000e+00   2.0000000000000000e+00   2.0000000000000000e+00   2.0000000000000000e+00   1.0000000000000000e+00   1.0000000000000000e+00   1.0000000000000000e+00   1.0000000000000000e+00   2.0000000000000000e+00   2.0000000000000000e+00   2.0000000000000000e+00   2.0000000000000000e+00   1.0000000000000000e+00   1.0000000000000000e+00   1.0000000000000000e+00   1.0000000000000000e+00   1.0000000000000000e+00   1.0000000000000000e+00   2.0000000000000000e+00   2.0000000000000000e+00   1.0000000000000000e+00   1.0000000000000000e+00   2.0000000000000000e+00   2.0000000000000000e+00   2.0000000000000000e+00   2.0000000000000000e+00   2.0000000000000000e+00   2.0000000000000000e+00   2.0000000000000000e+00   2.0000000000000000e+00   2.0000000000000000e+00   2.0000000000000000e+00   2.0000000000000000e+00   2.0000000000000000e+00   2.0000000000000000e+00   2.0000000000000000e+00   2.00000000000000