<?xml version="1.0"?>
<VTKFile type="UnstructuredGrid"  version="0.1"  >
<UnstructuredGrid>
<Piece  NumberOfPoints="2395" NumberOfCells="4575">
<Points>
<DataArray  type="Float64"  NumberOfComponents="3"  format="ascii">0 0 0  1.5 -0.125 0  3 -0.125 0  3 0.125 0  1.5 0.125 0  0 1 0  3 0.875 0  1.5 0.875 0  -1 1 0  -1 0 0  0.75 0.0625 0  0.75 0.9375 0  0.75 -0.0625 0  2.25 0.125 0  2.25 0.875 0  2.25 -0.125 0  0 0.5 0  -0.5 1 0  -1 0.5 0  -0.5 0 0  1.091145833333333 0.5 0  1.875 0.125 0  1.875 0.875 0  1.875 -0.125 0  3 0.5 0  2.625 0.875 0  2.625 0.125 0  2.625 -0.125 0  -0.5 0.5 0  0.5026041666666666 0.5 0  2.0625 0.5 0  1.125 0.09375 0  1.125 -0.09375 0  0.375 0.96875 0  1.125 0.90625 0  0.375 -0.03125 0  0.375 0.03125 0  1.46754743895966 0.5 0  2.625 0.5 0  -0.25 0 0  0 0.25 0  -1 0.25 0  -0.75 0 0  -0.75 1 0  -1 0.75 0  0 0.75 0  -0.25 1 0  1.76502371947983 0.414363140260085 0  0.7968749999999999 0.6222950768849207 0  2.34375 0.59375 0  0.7394670403941497 0.3452420888141521 0  0.2848618116593421 0.3075309628445865 0  0.2513020833333333 0.625 0  -0.625 0.75 0  -0.2916666666666666 0.2916666666666666 0  -0.625 0.25 0  -0.34375 0.734375 0  1.6875 0.6763185552102955 0  1.3125 0.890625 0  1.3125 0.109375 0  2.8125 0.125 0  3 0.3125 0  3 0.6875 0  2.8125 0.875 0  2.4375 0.125 0  0.5713213660941474 0.7498402865340634 0  -0.75 0.46875 0  0.520042613602117 0.2314154749090735 0  2.263392857142857 0.3660714285714286 0  0.9755030753166609 0.2858275132208329 0  2.0625 0.125 0  1.6875 -0.125 0  1.6875 0.125 0  1.201822916666667 0.6953125 0  1.279346636146497 0.3486176077052371 0  -0.2734375 0.5182291666666666 0  0.1875 0.984375 0  0.9375 0.921875 0  2.8125 0.40625 0  1.96875 0.3125 0  1.907250233835315 0.6567501169176577 0  2.15625 0.6875 0  2.53125 0.3125 0  2.71875 0.6875 0  0.1875 0.015625 0  0.1875 -0.015625 0  0.9948845839771514 0.6835627982462811 0  0.9375 -0.078125 0  0.9375 0.078125 0  2.4375 0.875 0  1.59375 0.3051830242302239 0  0.5625 0.046875 0  0.5625 -0.046875 0  2.524553571428572 0.6674107142857143 0  0.9032769174815132 0.463133120731458 0  1.498942415657852 0.686187298563681 0  1.3125 -0.109375 0  0.5625 0.953125 0  -0.8125 0.6649305555555556 0  2.0625 -0.125 0  2.8125 -0.125 0  1.6875 0.875 0  -0.8125 0.1875 0  2.4375 -0.125 0  2.0625 0.875 0  0.3776701746164817 0.7736578877642711 0  0.1805064901470225 0.797782307882382 0  -0.1289930555555556 0.625 0  -0.4473039215686274 0.1825980392156863 0  -0.1309523809523809 0.375 0  1.286616285973859 0.5322580633956974 0  -0.1614583333333333 0.1614583333333333 0  -0.125 1 0  0 0.875 0  -0.178679435483871 0.821320564516129 0  -0.8442089083510262 0.8442089083510262 0  0 0.375 0  0.1782428420576632 0.4567685679639341 0  2.698660714285714 0.2790178571428572 0  2.457589285714286 0.4665178571428572 0  2.845982142857143 0.5736607142857143 0  -1 0.375 0  0.8319931678771244 0.7886055145254929 0  0.3426692833429559 0.4615344177924612 0  -0.4457323438634713 0.3459343228031954 0  0.6343707352374377 0.5981286161092937 0  1.438783708530673 0.3430812994861924 0  0.8301784907077582 0.2070541163957097 0  2.127790178571429 0.2748325892857143 0  2.34375 0 0  2.71875 0 0  1.96875 0 0  1.78125 0 0  1.59375 0 0  2.15625 0 0  2.53125 0 0  3 0 0  0.6738594848600843 0.2033078984477602 0  1.139417802777843 0.2591882516233531 0  1.633786199549877 0.5179733770507333 0  1.820011859739915 0.2696815701300425 0  1.902391003308462 0.4966804504933638 0  -0.4793074324324325 0.8334037162162162 0  -0.6708984375 0.6019965277777778 0  0.270697682051558 0.1500653153813044 0  0.4602615427314792 0.6460163938154658 0  0 0.125 0  1.416015625 0 0  2.34375 0.2406994047619048 0  1.351873701154907 0.7392984790677749 0  2.392059948979592 0.7338966836734694 0  2.203125 0.546875 0  0.1356178503219184 0.3125 0  0.4260499013955767 0.3423850994708902 0  -0.753125 0.321875 0  -0.3062406386165577 0.1468843613834422 0  -0.375 1 0  0.7633853070059352 0.4847602271969778 0  0.5870634218683796 0.3706253272666651 0  -0.3939144736842105 0.598547149122807 0  -0.3108739190968454 0.8721282949753572 0  2.859375 0.265625 0  2.859375 0.7166491596638656 0  0 0.625 0  1.789688092448572 0.5802103586817351 0  -0.5817373642600167 0.3846186821300083 0  -0.7048572593171034 0.8663213703414483 0  -0.5727211097204838 0.119889445139758 0  -0.532258721798014 0.6401206391009929 0  1.227213541666667 0 0  1.78125 0.7756592776051477 0  0.1350218353881122 0.1410642178081924 0  2.023571947481598 0.7383484737407991 0  -0.8659517426273459 0.3977463136729223 0  1.598162255676021 0.7756592776051477 0  1.355293236707115 0.2372235696114275 0  -0.875 0 0  -1 0.125 0  0.7077922765965158 0.7279688155653478 0  0.4046068538982325 0.1624291311416015 0  1.393501784639488 0.6082261738668111 0  0.65625 0.9453125 0  0.28125 0.9765625 0  1.023113567057683 0.8164253046921903 0  0.46875 0.9609375 0  1.03125 0.0859375 0  1.03125 -0.0859375 0  2.409766594730309 0.3490226881629429 0  -0.8681525617639529 0.5391545058883769 0  0.1256510416666667 0.5795877731157937 0  -0.1483856872302484 0.5001443079909847 0  -0.625 0 0  -0.375 0 0  2.864583333333333 0 0  -0.875 1 0  -0.125 0 0  -1 0.875 0  -0.625 1 0  -1 0.625 0  -0.6946518160894539 0.1464554482683619 0  1.155814760874302 0.387719165351611 0  -0.3368172572848583 0.4093140800880537 0  0.8646600242677694 0.3440387599495337 0  1.012390192716039 0.4042172428140324 0  1.362240718690751 0.4373002532220823 0  2.022718117999444 0.6158558411494314 0  2.141492912689269 0.4008554404624753 0  2.33294930875576 0.4695420506912443 0  -0.2231675762042645 0.7056133541213269 0  2.266509176786575 0.7495579116067124 0  0.9162865715721691 0.586976787789567 0  -0.6341667084936641 0.4900882883376927 0  0.4838502475650168 0.8378065221444251 0  0.84375 0.0703125 0  0.84375 -0.0703125 0  2.691964285714286 0.3995535714285715 0  2.725446428571428 0.5669642857142858 0  0.6428584280185556 0.4776934599945393 0  1.560106826015655 0.421674492299619 0  2.53125 0.875 0  2.613912470725996 0.7522687353629978 0  1.710558841176566 0.3108727751347355 0  1.21875 0.1015625 0  -0.7604601461971343 0.7665781777900219 0  -0.5907347052814409 0.859096497234703 0  1.871118957989637 0.3718957666294864 0  1.468500094440853 0.2337903291999555 0  0.1576706977426279 0.68753060058375 0  0.2875914490391437 0.8552142370165982 0  2.627391581632653 0.6219706632653064 0  1.178412591933165 0.5795635937378733 0  1.21875 0.8984375 0  1.136185910409563 0.790865772669738 0  0.6541616363324483 0.8300338766383399 0  1.891125116917658 0.7658750584588289 0  0.3614359435532117 0.5792909377828774 0  2.236150351605303 0.2601719073946097 0  0.8853070897836208 0.6924597467679925 0  0.65625 0.0546875 0  0.65625 -0.0546875 0  0.1147578891594618 0.8936739757266369 0  1.24702906790611 0.2449974447814169 0  -0.8579141681780026 0.2878719580321406 0  -0.1800595238095238 0.2730654761904762 0  1.542656480234884 0.5830756494821322 0  3 0.78125 0  2.526945153061225 0.5550063775510203 0  0.1974859220353332 0.2265659818441911 0  0.9763488696244356 0.1783448145067731 0  1.073022672812764 0.607517463387853 0  -0.4559331695681008 0.723105436888684 0  1.291599159204821 0.6384241227682478 0  2.15625 0.875 0  2.773463145023634 0.7773309274881828 0  2.25 0.640625 0  2.032528484808103 0.2272017424040513 0  2.554315476190476 0.418154761904762 0  2.601934523809524 0.2306547619047619 0  2.894345238095238 0.4769345238095238 0  2.453798294624598 0.2340383526877008 0  1.914084955241937 0.2226450223790313 0  2.90625 0.359375 0  1.984027254881138 0.4220488725594312 0  2.90625 0.875 0  -0.2358128762540495 0.3805897987620613 0  2.494254594672501 0.7722907504022696 0  1.257372032966998 0.795495645603979 0  -0.7695772529441884 0.5707379647297427 0  -0.9153083204732511 0.6875 0  1.66201154250678 0.4024992953784369 0  -0.5337427384224719 0.2949335326481405 0  1.96875 0.875 0  0.46875 -0.0390625 0  0.46875 0.0390625 0  1.59375 0.125 0  1.656284472391552 0.2232392027368 0  1.085611979166667 0 0  -0.1098425368958015 0.7342945621870717 0  -0.3021057293002611 0.6418173795459495 0  1.40625 0.8828125 0  1.450011168437995 0.7808706865935465 0  2.34375 0.875 0  0.5082435203247377 0.131546506103147 0  3 0.21875 0  2.90625 0.125 0  0.272848513801325 0.7347234058525046 0  -0.3961952022692456 0.4946284914468091 0  -0.7787948732778861 0.09456837557403797 0  -0.9166666666666666 0.1875 0  -0.4068704224847951 0.9040023053789293 0  -0.393607115769432 0.09824630723118558 0  1.78125 0.125 0  0.07920525203205457 0.4375 0  1.78530239798132 0.6779276234590794 0  2.53125 0.125 0  0.9903379609882778 0.5165926038157089 0  0.09375 0.0078125 0  0.09375 -0.0078125 0  2.429219148596939 0.6426877391581631 0  0.3910835424260719 0.8714058021225157 0  0.3676507205373362 0.6766333029734967 0  1.199263354231723 0.4798543892512788 0  2.060638973584373 0.3458904727927469 0  1.104933850513507 0.6990780854451989 0  2.15625 0.125 0  0.28125 0.0234375 0  0.28125 -0.0234375 0  0.4690976681125427 0.742275297062717 0  2.113232298697226 0.5821781039083235 0  0.9244545287601558 0.8238042578415761 0  1.065616312299377 0.3226919964388471 0  -0.1875 0.9213734559124619 0  -0.0985447220284108 0.8788004138970833 0  -0.9092261904761905 0.09077380952380952 0  2.916647086466166 0.6391633956214064 0  2.71875 0.125 0  2.774312258687259 0.2158542471042471 0  2.222226809072056 0.4527958411192566 0  2.109375 0.7877761742659657 0  -0.361374766296655 0.2255589031291991 0  1.593227879489025 0.6813803992577582 0  1.321614583333333 0.01432872953869051 0  0.6534299297991001 0.2988815301586376 0  -0.2670314939447324 0.7888651642865234 0  1.03125 0.9140625 0  1.40625 0.1171875 0  1.21875 -0.1015625 0  1.40625 -0.1171875 0  0.84375 0.9296875 0  0.09375 0.9921875 0  0.3720942498561999 0.2575587724828834 0  -0.6822915278976419 0.3938386495297371 0  1.561682241667504 0.2158777505213618 0  2.71875 0.875 0  1.59375 0.875 0  1.96875 0.125 0  1.78125 0.875 0  2.34375 0.125 0  2.625 0.02734375 0  2.4375 -0.02734375 0  2.25 0.02734375 0  2.0625 -0.02734375 0  1.59375 -0.125 0  1.875 0.02734375 0  1.6875 -0.0
[...]
<PointData  Vectors="f_127"> 
<DataArray  type="Float64"  Name="f_127"  NumberOfComponents="3" format="ascii">-2.3846687856331670e-17 5.0809247555507037e-18 0.0000000000000000e+00  5.0998752338878139e-01 -7.5000000000000164e-02 0.0000000000000000e+00  5.0998752338878173e-01 -7.5000000000000247e-02 0.0000000000000000e+00  4.9750311915280965e-01 -7.4999999999999775e-02 0.0000000000000000e+00  4.9750311915280859e-01 -7.4999999999999775e-02 0.0000000000000000e+00  -4.9937616943892232e-02 1.4247423987875982e-15 0.0000000000000000e+00  4.6004990644489047e-01 -7.4999999999998096e-02 0.0000000000000000e+00  4.6004990644488891e-01 -7.4999999999998471e-02 0.0000000000000000e+00  -4.9937616943893454e-02 6.6107121570427795e-16 0.0000000000000000e+00  -1.3907902582916075e-15 1.5712697620920518e-17 0.0000000000000000e+00  2.4875155957640410e-01 1.0143137792580937e-16 0.0000000000000000e+00  2.0505614475049871e-01 -7.4999999999998387e-02 0.0000000000000000e+00  2.5499376169439053e-01 -7.5000000000000053e-02 0.0000000000000000e+00  4.9750311915280865e-01 -7.4999999999999969e-02 0.0000000000000000e+00  4.6004990644488880e-01 -7.4999999999998651e-02 0.0000000000000000e+00  5.0998752338878262e-01 -7.5000000000000289e-02 0.0000000000000000e+00  -2.4968808471946123e-02 6.1692120155671854e-16 0.0000000000000000e+00  -4.9937616943893169e-02 1.8089476163085624e-15 0.0000000000000000e+00  -2.4968808471946592e-02 1.1018115099498050e-16 0.0000000000000000e+00  -6.7190943091743252e-16 7.9378275130543452e-18 0.0000000000000000e+00  3.3141718597706149e-01 -5.3065679547985828e-02 0.0000000000000000e+00  4.9750311915280837e-01 -7.4999999999999706e-02 0.0000000000000000e+00  4.6004990644488991e-01 -7.4999999999998540e-02 0.0000000000000000e+00  5.0998752338878162e-01 -7.5000000000000303e-02 0.0000000000000000e+00  4.7877651279884631e-01 -7.4999999999999525e-02 0.0000000000000000e+00  4.6004990644488974e-01 -7.4999999999998956e-02 0.0000000000000000e+00  4.9750311915280870e-01 -7.4999999999999872e-02 0.0000000000000000e+00  5.0998752338878239e-01 -7.5000000000000275e-02 0.0000000000000000e+00  -2.4968808471947806e-02 1.4386140686415277e-15 0.0000000000000000e+00  1.4267449913778998e-01 -2.4965049199475443e-02 0.0000000000000000e+00  4.7389143720388277e-01 -7.4271564520167158e-02 0.0000000000000000e+00  3.7312733936460579e-01 -2.8124999999999845e-02 0.0000000000000000e+00  3.8249064254158566e-01 -8.4375000000000172e-02 0.0000000000000000e+00  7.7559263903302866e-02 -4.6874999999999091e-02 0.0000000000000000e+00  3.3255302559769284e-01 -8.4374999999998673e-02 0.0000000000000000e+00  1.2749688084719527e-01 -4.6875000000000056e-02 0.0000000000000000e+00  1.2437577978820173e-01 9.3750000000000343e-03 0.0000000000000000e+00  4.2582367102183527e-01 -6.7120027525120335e-02 0.0000000000000000e+00  4.7833384126746475e-01 -7.4933983701116536e-02 0.0000000000000000e+00  -3.3076821932653838e-16 1.7527806616506607e-18 0.0000000000000000e+00  -1.2484404235973046e-02 1.6184952619694441e-16 0.0000000000000000e+00  -1.2484404235975322e-02 3.8918808092252670e-16 0.0000000000000000e+00  -1.2314214744257335e-15 2.0260557609849802e-17 0.0000000000000000e+00  -4.9937616943893273e-02 1.1908024667178861e-15 0.0000000000000000e+00  -3.7453212707920541e-02 1.0000789737986797e-15 0.0000000000000000e+00  -3.7453212707919209e-02 1.0303897112738589e-15 0.0000000000000000e+00  -4.9937616943892482e-02 1.5451420688830090e-15 0.0000000000000000e+00  4.6721629217587379e-01 -7.2433165676250910e-02 0.0000000000000000e+00  2.3352788965199814e-01 -4.8871994928726591e-02 0.0000000000000000e+00  4.7271003537546291e-01 -7.4795248254818300e-02 0.0000000000000000e+00  2.2880829575026376e-01 -2.4658095825524372e-02 0.0000000000000000e+00  7.9925901819393672e-02 -6.0219155235633664e-03 0.0000000000000000e+00  5.2809098429776657e-02 -1.7178989696350868e-02 0.0000000000000000e+00  -3.7453212707921159e-02 1.9323703898003920e-15 0.0000000000000000e+00  -1.4565138275303230e-02 7.9234331486585338e-16 0.0000000000000000e+00  -1.2484404235975280e-02 1.0759507144580787e-15 0.0000000000000000e+00  -3.6672937443171849e-02 1.3677640192851382e-15 0.0000000000000000e+00  4.5232612337849609e-01 -7.2974146636302209e-02 0.0000000000000000e+00  3.9630146602129102e-01 -8.2031249999998904e-02 0.0000000000000000e+00  4.3531522925870575e-01 -4.9218749999999721e-02 0.0000000000000000e+00  4.9750311915281137e-01 -7.4999999999999886e-02 0.0000000000000000e+00  4.8813981597582984e-01 -7.4999999999999623e-02 0.0000000000000000e+00  4.6941320962187050e-01 -7.4999999999998526e-02 0.0000000000000000e+00  4.6004990644488925e-01 -7.4999999999998915e-02 0.0000000000000000e+00  4.9750311915281087e-01 -7.4999999999999831e-02 0.0000000000000000e+00  1.5348875609158261e-01 -4.6409387400548806e-02 0.0000000000000000e+00  -2.3408257942451070e-02 1.4023348121752407e-15 0.0000000000000000e+00  1.6237051796190966e-01 -7.4646934662699962e-03 0.0000000000000000e+00  4.8368708442270858e-01 -7.4730464787711517e-02 0.0000000000000000e+00  3.0889544260550145e-01 -3.2165015950714415e-02 0.0000000000000000e+00  4.9750311915280621e-01 -7.4999999999999692e-02 0.0000000000000000e+00  5.0998752338878073e-01 -7.5000000000000247e-02 0.0000000000000000e+00  4.9750311915280737e-01 -7.4999999999999831e-02 0.0000000000000000e+00  3.5775301007197252e-01 -6.8971681115386388e-02 0.0000000000000000e+00  3.9494605747488865e-01 -5.4826712451215232e-02 0.0000000000000000e+00  -2.5879129614153378e-02 1.3184532737032201e-15 0.0000000000000000e+00  1.3810823479705402e-02 -2.5781249999998392e-02 0.0000000000000000e+00  2.6880458517409561e-01 -8.2031249999998390e-02 0.0000000000000000e+00  4.8330366444605061e-01 -7.4976925628378474e-02 0.0000000000000000e+00  4.8300900863967106e-01 -7.4175623920129399e-02 0.0000000000000000e+00  4.6349604308748277e-01 -7.3983787423963318e-02 0.0000000000000000e+00  4.6707877472733378e-01 -7.4664067986801391e-02 0.0000000000000000e+00  4.8766392574518130e-01 -7.4928505300157849e-02 0.0000000000000000e+00  4.6921295441659172e-01 -7.4970243716652729e-02 0.0000000000000000e+00  6.2187889894101095e-02 7.0312500000000383e-03 0.0000000000000000e+00  6.3748440423597327e-02 -2.5781250000000012e-02 0.0000000000000000e+00  2.9465485516655632e-01 -6.2313526691287917e-02 0.0000000000000000e+00  3.1874220211798721e-01 -8.2031250000000180e-02 0.0000000000000000e+00  3.1093944947050461e-01 -1.1718749999999936e-02 0.0000000000000000e+00  4.6004990644489013e-01 -7.4999999999999151e-02 0.0000000000000000e+00  4.6352806781205608e-01 -6.9934637895497115e-02 0.0000000000000000e+00  1.8656366968230315e-01 7.0312500000000982e-03 0.0000000000000000e+00  1.9124532127079283e-01 -6.3281250000000067e-02 0.0000000000000000e+00  4.6988621575520068e-01 -7.4921481506047341e-02 0.0000000000000000e+00  2.7531622231468356e-01 -4.1661115983525905e-02 0.0000000000000000e+00  4.3032841690363499e-01 -7.1865703936068018e-02 0.0000000000000000e+00  4.4623908296518311e-01 -8.2031250000000069e-02 0.0000000000000000e+00  1.4130770432690060e-01 -6.3281249999998693e-02 0.0000000000000000e+00  -3.3205047377624752e-02 1.0589532172266479e-15 0.0000000000000000e+00  5.0998752338878139e-01 -7.5000000000000303e-02 0.0000000000000000e+00  5.0998752338878384e-01 -7.5000000000000219e-02 0.0000000000000000e+00  4.6004990644488786e-01 -7.4999999999998901e-02 0.0000000000000000e+00  -9.3633031769808691e-03 5.2737059711761932e-16 0.0000000000000000e+00  5.0998752338878206e-01 -7.5000000000000275e-02 0.0000000000000000e+00  4.6004990644489008e-01 -7.4999999999998720e-02 0.0000000000000000e+00  8.7778001358909161e-02 -3.3875379282615359e-02 0.0000000000000000e+00  2.0628289292492222e-02 -1.7674333744171378e-02 0.0000000000000000e+00  -3.1211010589932978e-02 1.4702778660812612e-15 0.0000000000000000e+00  -9.1185109370604239e-03 7.4540484820697148e-16 0.0000000000000000e+00  -1.8726606353959997e-02 3.4794535101069871e-16 0.0000000000000000e+00  3.8433392768450830e-01 -6.2552717080866974e-02 0.0000000000000000e+00  -8.0628444023998404e-03 4.2018697354972555e-16 0.0000000000000000e+00  -4.9937616943892413e-02 6.6374693254969631e-16 0.0000000000000000e+00  -4.3695414825905741e-02 1.3607371851026724e-15 0.0000000000000000e+00  -4.1014791738948342e-02 2.3850580009675569e-15 0.0000000000000000e+00  -4.2157781085856535e-02 2.1241404356590749e-15 0.0000000000000000e+00  -1.8726606353959594e-02 2.3643940517724207e-16 0.0000000000000000e+00  3.6776902755889129e-02 -7.7115138017009891e-03 0.0000000000000000e+00  4.8962396545874709e-01 -7.4971861006375984e-02 0.0000000000000000e+00  4.7953336814553116e-01 -7.4863251647065185e-02 0.0000000000000000e+00  4.7497132895660960e-01 -7.4981118884471232e-02 0.0000000000000000e+00  -1.8726606353961027e-02 5.0107067215162281e-16 0.0000000000000000e+00  2.3820394423172719e-01 -6.4656573055574526e-02 0.0000000000000000e+00  9.1417499890766613e-02 -1.5177507738136331e-02 0.0000000000000000e+00  -1.7275135699893144e-02 1.6211399709471708e-15 0.0000000000000000e+00  1.8143334489754567e-01 -3.8645895625750090e-02 0.0000000000000000e+00  4.3366314639259884e-01 -6.3658804522922288e-02 0.0000000000000000e+00  2.6669194292953308e-01 -1.7528388448884553e-02 0.0000000000000000e+00  4.8784088872731735e-01 -7.4660234097570249e-02 0.0000000000000000e+00  5.0374491462459103e-01 -7.4999939987007491e-02 0.0000000000000000e+00  5.0374531762052788e-01 -7.4999999461292322e-02 0.0000000000000000e+00  5.0369993972876892e-01 -7.4993302419056967e-02 0.0000000000000000e+00  5.0326929164568046e-01 -7.4929763048974640e-02 0.0000000000000000e+00  4.9873324338802910e-01 -7.4252103419300136e-02 0.0000000000000000e+00  5.0374098913509957e-01 -7.4999360661093584e-02 0.0000000000000000e+00  5.0374528248715711e-01 -7.4999994276298970e-02 0.0000000000000000e+00  5.0374532127079552e-01 -7.5000000000000011e-02 0.0000000000000000e+00  2.1511751714421179e-01 -1.0238675458420641e-02 0.0000000000000000e+00  3.6257576174220024e-01 -4.0988189608800428e-02 0.0000000000000000e+00  4.4947313868661198e-01 -7.0889096227239018e-02 0.0000000000000000e+00  4.8247906061344703e-01 -7.3642871136536975e-02 0.0000000000000000e+00  4.6942894372741839e-01 -7.3578881025351248e-02 0.0000000000000000e+00  -4.1618195540023210e-02 1.8291742215537212e-15 0.0000000000000000e+00  -3.0062272005722156e-02 2.3039234010748119e-15 0.0000000000000000e+00  8.3239829536925172e-02 1.5608280470579025e-03 0.0000000000000000e+00  1.2145435004090362e-01 -3.1854873325051103e-02 0.0000000000000000e+00  -6.2422021179865282e-03 9.8191280837088067e-17 0.0000000000000000e+00  4.7022918546978842e-01 -7.0054312843549266e-02 0.0000000000000000e+00  4.9102686976351967e-01 -7.4893759371321658e-02 0.0000000000000000e+00  4.0050657225257663e-01 -7.3109894389973187e-02 0.0000000000000000e+00  4.6641375795783452e-01 -7.4899782869580822e-02 0.0000000000000000e+00  4.7378218396199234e-01 -7.4607401016303851e-02 0.0000000000000000e+00  2.9774042102682408e-02 -2.7805130026504390e-03 0.0000000000000000e+00  1.2524919167042955e-01 -1.1997769835508527e-02 0.0000000000000000e+00  -1.6073670453817079e-02 9.6048700822692320e-16 0.0000000000000000e+00  -7.3350549738159321e-03 5.3472773566987468e-16 0.0000000000000000e+00  -4.9937616943892739e-02 9.5078908037263105e-16 0.0000000000000000e+00  2.2921102730244733e-01 -3.6562081461294617e-02 0.0000000000000000e+00  1.7724805683426195e-01 -1.9964396056897787e-02 0.0000000000000000e+00  -2.9890018255755001e-02 1.4400042183109488e-15 0.0000000000000000e+00  -4.3552008720410186e-02 1.5051385532207594e-15 0.0000000000000000e+00  4.9041364451597796e-01 -7.4989980463216810e-02 0.0000000000000000e+00  4.6788337226213017e-01 -7.4988964457250409e-02 0.0000000000000000e+00  -3.1211010589932663e-02 8.0617160767965168e-16 0.0000000000000000e+00  4.6034812048101076e-01 -7.3006769791249052e-02 0.0000000000000000e+00  -1.9206940417675213e-02 1.1426444939788509e-15 0.0000000000000000e+00  -4.3262024742420635e-02 1.5005336992635990e-15 0.0000000000000000e+00  -5.9869931870060889e-03 5.4614131890626841e-16 0.0000000000000000e+00  -3.1966099273306896e-02 1.6271371578824492e-15 0.0000000000000000e+00  4.1177701795368715e-01 -6.1300382957213490e-02 0.0000000000000000e+00  4.5841883608663009e-01 -7.4234599537208013e-02 0.0000000000000000e+00  3.8223294110262741e-02 1.4344478261480754e-03 0.0000000000000000e+00  4.6375442784040827e-01 -7.4568647344328637e-02 0.0000000000000000e+00  -1.9862503053045429e-02 1.1535854646771702e-15 0.0000000000000000e+00  4.4946546691389755e-01 -7.3807859188501496e-02 0.0000000000000000e+00  4.2875846403831713e-01 -5.6997830127736154e-02 0.0000000000000000e+00  -9.2053865167996352e-16 1.9379644732752759e-17 0.0000000000000000e+00  -6.2422021179873201e-03 1.7333923120460977e-16 0.0000000000000000e+00  1.9971105217541213e-01 -5.2922354389135201e-02 0.0000000000000000e+00  1.2744873767296996e-01 -1.3266224048658439e-04 0.0000000000000000e+00  4.0802919526500736e-01 -6.8336806841391137e-02 0.0000000000000000e+00  1.7318192453869918e-01 -6.9726562499999353e-02 0.0000000000000000e+00  4.5685043691504085e-02 -3.6914062499998165e-02 0.0000000000000000e+00  3.0007066168965463e-01 -7.4304721137154514e-02 0.0000000000000000e+00  1.0943348411510159e-01 -5.5664062499999299e-02 0.0000000000000000e+00  3.4203339441755398e-01 -1.9335937499999900e-02 0.0000000000000000e+00  3.5061642232978613e-01 -8.3789062500000094e-02 0.0000000000000000e+00  4.8540172420485839e-01 -7.4862271396965219e-02 0.0000000000000000e+00  -2.6924091188629075e-02 9.2262174789853083e-16 0.0000000000000000e+00  1.3072562785358254e-02 -7.7860911791042351e-03 0.0000000000000000e+00  -2.4976014869122331e-02 7.4554795387300829e-16 0.0000000000000000e+00  -3.5645774106284032e-16 -5.9268135923304215e-18 0.0000000000000000e+00  -2.7012348362156088e-16 1.0265617838690190e-17 0.0000000000000000e+00  5.0374532069848932e-01 -7.4999999915538129e-02 0.0000000000000000e+00  -4.9937616943892940e-02 8.9576682180098871e-16 0.0000000000000000e+00  -1.4037560563180383e-16 3.3999698088923089e-17 0.0000000000000000e+00  -4.3695414825907226e-02 1.3006520606901308e-15 0.0000000000000000e+00  -4.9937616943893245e-02 1.8666247507002358e-15 0.0000000000000000e+00  -3.1211010589933696e-02 9.3842826180716187e-16 0.0000000000000000e+00  -7.3136360749731996e-03 6.7388327091746054e-16 0.0000000000000000e+00  3.5714197006877063e-01 -4.9522472043606137e-02 0.0000000000000000e+00  -2.0440169741180715e-02 1.3190168747391314e-15 0.0000000000000000e+00  2.6961981308118738e-01 -3.0629021434882012e-02 0.0000000000000000e+00  3.1283350517992636e-01 -4.2843040498719703e-02 0.0000000000000000e+00  4.0795435688860177e-01 -6.1961656509191859e-02 0.0000000000000000e+00  4.6786355587717993e-01 -7.4266088834465296e-02 0.0000000000000000e+00  4.8051688617308086e-01 -7.4510968437505140e-02 0.0000000000000000e+00  4.7874040608040058e-01 -7.4767109567898532e-02 0.0000000000000000e+00  -3.5236649388606524e-02 1.0290144426005134e-15 0.0000000000000000e+00  4.6527244622440794e-01 -7.4848848779340851e-02 0.0000000000000000e+00  2.7348018808203767e-01 -5.1612401678486845e-02 0.0000000000000000e+00  -2.4473841211697506e-02 1.2676533598227402e-15 0.0000000000000000e+00  1.2023729246725717e-01 -4.6858616622030551e-02 0.0000000000000000e+00  2.7984550452345314e-01 -5.2734374999998694e-03 0.0000000000000000e+00  2.8686798190618967e-01 -7.9101562500000056e-02 0.0000000000000000e+00  4.8349685976372447e-01 -7.4955797958354387e-02 0.0000000000000000e+00  4.7516983907594396e-01 -7.4960887231368956e-02 0.0000000000000000e+00  1.9013262529777372e-01 -3.0227803281156321e-02 0.0000000000000000e+00  4.4619758727568948e-01 -6.8682144581265286e-02 0.0000000000000000e+00  4.6004990644489030e-01 -7.4999999999998526e-02 0.0000000000000000e+00  4.6595023649446082e-01 -7.4966135372545956e-02 0.0000000000000000e+00  4.7294554334494898e-01 -7.2211497668652175e-02 0.0000000000000000e+00  4.0422128431165716e-01 -3.8085937499999917e-02 0.0000000000000000e+00  -3.8281087400026420e-02 8.8299499061765350e-16 0.0000000000000000e+00  -4.2901231796747527e-02 2.0566336923159873e-15 0.0000000000000000e+00  4.7581069898694389e-01 -7.3488092359883017e-02 0.0000000000000000e+00  4.5697036492261311e-01 -6.5656779484549982e-02 0.0000000000000000e+00  1.8422557831005944e-02 -1.2448945866929557e-02 0.0000000000000000e+00  5.3695909107953445e-02 -3.0543524376776036e-02 0.0000000000000000e+00  4.7230323189839446e-01 -7.4943179345839897e-02 0.0000000000000000e+00  3.5342478427756929e-01 -6.1344280982295038e-02 0.0000000000000000e+00  3.6442724580949137e-01 -8.3789062499998387e-02 0.0000000000000000e+00  3.3699454826875919e-01 -7.4588160875923182e-02 0.0000000000000000e+00  1.7748128543474059e-01 -5.8565353967959650e-02 0.0000000000000000e+00  4.6101401588469709e-01 -7.4422712212450920e-02 0.0000000000000000e+00  9.1809509694799105e-02 -2.1985728941083572e-02 0.0000000000000000e+00  4.8949167001285476e-01 -7.4806305649505953e-02 0.0000000000000000e+00  2.5926533497791382e-01 -5.8685723357004976e-02 0.0000000000000000e+00  2.1765761462935360e-01 4.1015625000000696e-03 0.0000000000000000e+00  2.2311954148259180e-01 -6.9726562500000089e-02 0.0000000000000000e+00  -6.1363914357310135e-03 -1.3574199724820829e-02 0.0000000000000000e+00  3.9671300413719396e-01 -4.8383544087414222e-02 0.0000000000000000e+00  -1.4375639569099050e-02 9.3998787439264268e-16 0.0000000000000000e+00  -1.3636239150602204e-02 6.9463396470516865e-16 0.0000000000000000e+00  4.3576055387968460e-01 -7.0240318514231737e-02 0.0000000000000000e+00  4.6473155803338007e-01 -7.4999999999998734e-02 0.0000000000000000e+00  4.7536179785495075e-01 -7.4900646928624651e-02 0.0000000000000000e+00  5.4819470440759507e-02 -1.2875905752531402e-03 0.0000000000000000e+00  3.1673998032636391e-01 -2.3544752046062916e-02 0.0000000000000000e+00  3.2142959448317454e-01 -5.9464324099823981e-02 0.0000000000000000e+00  -3.6110162317394189e-02 2.0549191648293978e-15 0.0000000000000000e+00  3.8314295104169027e-01 -6.7564253178232642e-02 0.0000000000000000e+00  4.6004990644488952e-01 -7.4999999999998040e-02 0.0000000000000000e+00  4.6484314552708611e-01 -7.4987504384900483e-02 0.0000000000000000e+00  4.6990327328631037e-01 -7.4729134381390908e-02 0.0000000000000000e+00  4.9009936532692294e-01 -7.4630980882981604e-02 0.0000000000000000e+00  4.8229095577010495e-01 -7.4914314172511806e-02 0.0000000000000000e+00  4.9201673896139053e-01 -7.4968424621988730e-02 0.0000000000000000e+00  4.7984063794702680e-01 -7.4986915939179152e-02 0.0000000000000000e+00  4.9164471923111502e-01 -7.4937579974637680e-02 0.0000000000000000e+00  4.8897760570216536e-01 -7.4387507808346229e-02 0.0000000000000000e+00  4.8573451829418018e-01 -7.4990368878033856e-02 0.0000000000000000e+00  4.7623702492486480e-01 -7.4009148986780807e-02 0.0000000000000000e+00  4.6004990644489008e-01 -7.4999999999998679e-02 0.0000000000000000e+00  -1.9005747583333808e-02 1.2712542988427404e-15 0.0000000000000000e+00  4.6484904857938159e-01 -7.4951345988626114e-02 0.0000000000000000e+00  3.7504925121769894e-01 -7.6043207774412716e-02 0.0000000000000000e+00  -2.8501293858012464e-02 1.0518382090205853e-15 0.0000000000000000e+00  -3.4332111648927147e-02 9.4827975795330644e-16 0.0000000000000000e+00  4.5993507210114393e-01 -7.0957517611267354e-02 0.0000000000000000e+00  -1.4728277777293658e-02 1.3551567185309616e-15 0.0000000000000000e+00  4.6004990644488891e-01 -7.4999999999999498e-02 0.0000000000000000e+00  1.5937110105899394e-01 -5.5664062500000104e-02 0.0000000000000000e+00  1.5546972473525197e-01 8.7890625000000416e-03 0.0000000000000000e+00  4.9750311915280787e-01 -7.4999999999999914e-02 0.0000000000000000e+00  4.8104751722993810e-01 -7.2624312153786966e-02 0.0000000000000000e+00  3.6454648072266371e-01 -5.4259096759716005e-02 0.0000000000000000e+00  -3.6668920570481441e-02 8.6414493322652361e-16 0.0000000000000000e+00  -3.2050830447699546e-02 1.8192437160746515e-15 0.0000000000000000e+00  4.2817568623308955e-01 -7.9101562499997918e-02 0.0000000000000000e+00  4.28010909924895