<?xml version="1.0"?>
<VTKFile type="UnstructuredGrid"  version="0.1"  >
<UnstructuredGrid>
<Piece  NumberOfPoints="2395" NumberOfCells="4575">
<Points>
<DataArray  type="Float64"  NumberOfComponents="3"  format="ascii">0 0 0  1.5 -0.125 0  3 -0.125 0  3 0.125 0  1.5 0.125 0  0 1 0  3 0.875 0  1.5 0.875 0  -1 1 0  -1 0 0  0.75 0.0625 0  0.75 0.9375 0  0.75 -0.0625 0  2.25 0.125 0  2.25 0.875 0  2.25 -0.125 0  0 0.5 0  -0.5 1 0  -1 0.5 0  -0.5 0 0  1.091145833333333 0.5 0  1.875 0.125 0  1.875 0.875 0  1.875 -0.125 0  3 0.5 0  2.625 0.875 0  2.625 0.125 0  2.625 -0.125 0  -0.5 0.5 0  0.5026041666666666 0.5 0  2.0625 0.5 0  1.125 0.09375 0  1.125 -0.09375 0  0.375 0.96875 0  1.125 0.90625 0  0.375 -0.03125 0  0.375 0.03125 0  1.46754743895966 0.5 0  2.625 0.5 0  -0.25 0 0  0 0.25 0  -1 0.25 0  -0.75 0 0  -0.75 1 0  -1 0.75 0  0 0.75 0  -0.25 1 0  1.76502371947983 0.414363140260085 0  0.7968749999999999 0.6222950768849207 0  2.34375 0.59375 0  0.7394670403941497 0.3452420888141521 0  0.2848618116593421 0.3075309628445865 0  0.2513020833333333 0.625 0  -0.625 0.75 0  -0.2916666666666666 0.2916666666666666 0  -0.625 0.25 0  -0.34375 0.734375 0  1.6875 0.6763185552102955 0  1.3125 0.890625 0  1.3125 0.109375 0  2.8125 0.125 0  3 0.3125 0  3 0.6875 0  2.8125 0.875 0  2.4375 0.125 0  0.5713213660941474 0.7498402865340634 0  -0.75 0.46875 0  0.520042613602117 0.2314154749090735 0  2.263392857142857 0.3660714285714286 0  0.9755030753166609 0.2858275132208329 0  2.0625 0.125 0  1.6875 -0.125 0  1.6875 0.125 0  1.201822916666667 0.6953125 0  1.279346636146497 0.3486176077052371 0  -0.2734375 0.5182291666666666 0  0.1875 0.984375 0  0.9375 0.921875 0  2.8125 0.40625 0  1.96875 0.3125 0  1.907250233835315 0.6567501169176577 0  2.15625 0.6875 0  2.53125 0.3125 0  2.71875 0.6875 0  0.1875 0.015625 0  0.1875 -0.015625 0  0.9948845839771514 0.6835627982462811 0  0.9375 -0.078125 0  0.9375 0.078125 0  2.4375 0.875 0  1.59375 0.3051830242302239 0  0.5625 0.046875 0  0.5625 -0.046875 0  2.524553571428572 0.6674107142857143 0  0.9032769174815132 0.463133120731458 0  1.498942415657852 0.686187298563681 0  1.3125 -0.109375 0  0.5625 0.953125 0  -0.8125 0.6649305555555556 0  2.0625 -0.125 0  2.8125 -0.125 0  1.6875 0.875 0  -0.8125 0.1875 0  2.4375 -0.125 0  2.0625 0.875 0  0.3776701746164817 0.7736578877642711 0  0.1805064901470225 0.797782307882382 0  -0.1289930555555556 0.625 0  -0.4473039215686274 0.1825980392156863 0  -0.1309523809523809 0.375 0  1.286616285973859 0.5322580633956974 0  -0.1614583333333333 0.1614583333333333 0  -0.125 1 0  0 0.875 0  -0.178679435483871 0.821320564516129 0  -0.8442089083510262 0.8442089083510262 0  0 0.375 0  0.1782428420576632 0.4567685679639341 0  2.698660714285714 0.2790178571428572 0  2.457589285714286 0.4665178571428572 0  2.845982142857143 0.5736607142857143 0  -1 0.375 0  0.8319931678771244 0.7886055145254929 0  0.3426692833429559 0.4615344177924612 0  -0.4457323438634713 0.3459343228031954 0  0.6343707352374377 0.5981286161092937 0  1.438783708530673 0.3430812994861924 0  0.8301784907077582 0.2070541163957097 0  2.127790178571429 0.2748325892857143 0  2.34375 0 0  2.71875 0 0  1.96875 0 0  1.78125 0 0  1.59375 0 0  2.15625 0 0  2.53125 0 0  3 0 0  0.6738594848600843 0.2033078984477602 0  1.139417802777843 0.2591882516233531 0  1.633786199549877 0.5179733770507333 0  1.820011859739915 0.2696815701300425 0  1.902391003308462 0.4966804504933638 0  -0.4793074324324325 0.8334037162162162 0  -0.6708984375 0.6019965277777778 0  0.270697682051558 0.1500653153813044 0  0.4602615427314792 0.6460163938154658 0  0 0.125 0  1.416015625 0 0  2.34375 0.2406994047619048 0  1.351873701154907 0.7392984790677749 0  2.392059948979592 0.7338966836734694 0  2.203125 0.546875 0  0.1356178503219184 0.3125 0  0.4260499013955767 0.3423850994708902 0  -0.753125 0.321875 0  -0.3062406386165577 0.1468843613834422 0  -0.375 1 0  0.7633853070059352 0.4847602271969778 0  0.5870634218683796 0.3706253272666651 0  -0.3939144736842105 0.598547149122807 0  -0.3108739190968454 0.8721282949753572 0  2.859375 0.265625 0  2.859375 0.7166491596638656 0  0 0.625 0  1.789688092448572 0.5802103586817351 0  -0.5817373642600167 0.3846186821300083 0  -0.7048572593171034 0.8663213703414483 0  -0.5727211097204838 0.119889445139758 0  -0.532258721798014 0.6401206391009929 0  1.227213541666667 0 0  1.78125 0.7756592776051477 0  0.1350218353881122 0.1410642178081924 0  2.023571947481598 0.7383484737407991 0  -0.8659517426273459 0.3977463136729223 0  1.598162255676021 0.7756592776051477 0  1.355293236707115 0.2372235696114275 0  -0.875 0 0  -1 0.125 0  0.7077922765965158 0.7279688155653478 0  0.4046068538982325 0.1624291311416015 0  1.393501784639488 0.6082261738668111 0  0.65625 0.9453125 0  0.28125 0.9765625 0  1.023113567057683 0.8164253046921903 0  0.46875 0.9609375 0  1.03125 0.0859375 0  1.03125 -0.0859375 0  2.409766594730309 0.3490226881629429 0  -0.8681525617639529 0.5391545058883769 0  0.1256510416666667 0.5795877731157937 0  -0.1483856872302484 0.5001443079909847 0  -0.625 0 0  -0.375 0 0  2.864583333333333 0 0  -0.875 1 0  -0.125 0 0  -1 0.875 0  -0.625 1 0  -1 0.625 0  -0.6946518160894539 0.1464554482683619 0  1.155814760874302 0.387719165351611 0  -0.3368172572848583 0.4093140800880537 0  0.8646600242677694 0.3440387599495337 0  1.012390192716039 0.4042172428140324 0  1.362240718690751 0.4373002532220823 0  2.022718117999444 0.6158558411494314 0  2.141492912689269 0.4008554404624753 0  2.33294930875576 0.4695420506912443 0  -0.2231675762042645 0.7056133541213269 0  2.266509176786575 0.7495579116067124 0  0.9162865715721691 0.586976787789567 0  -0.6341667084936641 0.4900882883376927 0  0.4838502475650168 0.8378065221444251 0  0.84375 0.0703125 0  0.84375 -0.0703125 0  2.691964285714286 0.3995535714285715 0  2.725446428571428 0.5669642857142858 0  0.6428584280185556 0.4776934599945393 0  1.560106826015655 0.421674492299619 0  2.53125 0.875 0  2.613912470725996 0.7522687353629978 0  1.710558841176566 0.3108727751347355 0  1.21875 0.1015625 0  -0.7604601461971343 0.7665781777900219 0  -0.5907347052814409 0.859096497234703 0  1.871118957989637 0.3718957666294864 0  1.468500094440853 0.2337903291999555 0  0.1576706977426279 0.68753060058375 0  0.2875914490391437 0.8552142370165982 0  2.627391581632653 0.6219706632653064 0  1.178412591933165 0.5795635937378733 0  1.21875 0.8984375 0  1.136185910409563 0.790865772669738 0  0.6541616363324483 0.8300338766383399 0  1.891125116917658 0.7658750584588289 0  0.3614359435532117 0.5792909377828774 0  2.236150351605303 0.2601719073946097 0  0.8853070897836208 0.6924597467679925 0  0.65625 0.0546875 0  0.65625 -0.0546875 0  0.1147578891594618 0.8936739757266369 0  1.24702906790611 0.2449974447814169 0  -0.8579141681780026 0.2878719580321406 0  -0.1800595238095238 0.2730654761904762 0  1.542656480234884 0.5830756494821322 0  3 0.78125 0  2.526945153061225 0.5550063775510203 0  0.1974859220353332 0.2265659818441911 0  0.9763488696244356 0.1783448145067731 0  1.073022672812764 0.607517463387853 0  -0.4559331695681008 0.723105436888684 0  1.291599159204821 0.6384241227682478 0  2.15625 0.875 0  2.773463145023634 0.7773309274881828 0  2.25 0.640625 0  2.032528484808103 0.2272017424040513 0  2.554315476190476 0.418154761904762 0  2.601934523809524 0.2306547619047619 0  2.894345238095238 0.4769345238095238 0  2.453798294624598 0.2340383526877008 0  1.914084955241937 0.2226450223790313 0  2.90625 0.359375 0  1.984027254881138 0.4220488725594312 0  2.90625 0.875 0  -0.2358128762540495 0.3805897987620613 0  2.494254594672501 0.7722907504022696 0  1.257372032966998 0.795495645603979 0  -0.7695772529441884 0.5707379647297427 0  -0.9153083204732511 0.6875 0  1.66201154250678 0.4024992953784369 0  -0.5337427384224719 0.2949335326481405 0  1.96875 0.875 0  0.46875 -0.0390625 0  0.46875 0.0390625 0  1.59375 0.125 0  1.656284472391552 0.2232392027368 0  1.085611979166667 0 0  -0.1098425368958015 0.7342945621870717 0  -0.3021057293002611 0.6418173795459495 0  1.40625 0.8828125 0  1.450011168437995 0.7808706865935465 0  2.34375 0.875 0  0.5082435203247377 0.131546506103147 0  3 0.21875 0  2.90625 0.125 0  0.272848513801325 0.7347234058525046 0  -0.3961952022692456 0.4946284914468091 0  -0.7787948732778861 0.09456837557403797 0  -0.9166666666666666 0.1875 0  -0.4068704224847951 0.9040023053789293 0  -0.393607115769432 0.09824630723118558 0  1.78125 0.125 0  0.07920525203205457 0.4375 0  1.78530239798132 0.6779276234590794 0  2.53125 0.125 0  0.9903379609882778 0.5165926038157089 0  0.09375 0.0078125 0  0.09375 -0.0078125 0  2.429219148596939 0.6426877391581631 0  0.3910835424260719 0.8714058021225157 0  0.3676507205373362 0.6766333029734967 0  1.199263354231723 0.4798543892512788 0  2.060638973584373 0.3458904727927469 0  1.104933850513507 0.6990780854451989 0  2.15625 0.125 0  0.28125 0.0234375 0  0.28125 -0.0234375 0  0.4690976681125427 0.742275297062717 0  2.113232298697226 0.5821781039083235 0  0.9244545287601558 0.8238042578415761 0  1.065616312299377 0.3226919964388471 0  -0.1875 0.9213734559124619 0  -0.0985447220284108 0.8788004138970833 0  -0.9092261904761905 0.09077380952380952 0  2.916647086466166 0.6391633956214064 0  2.71875 0.125 0  2.774312258687259 0.2158542471042471 0  2.222226809072056 0.4527958411192566 0  2.109375 0.7877761742659657 0  -0.361374766296655 0.2255589031291991 0  1.593227879489025 0.6813803992577582 0  1.321614583333333 0.01432872953869051 0  0.6534299297991001 0.2988815301586376 0  -0.2670314939447324 0.7888651642865234 0  1.03125 0.9140625 0  1.40625 0.1171875 0  1.21875 -0.1015625 0  1.40625 -0.1171875 0  0.84375 0.9296875 0  0.09375 0.9921875 0  0.3720942498561999 0.2575587724828834 0  -0.6822915278976419 0.3938386495297371 0  1.561682241667504 0.2158777505213618 0  2.71875 0.875 0  1.59375 0.875 0  1.96875 0.125 0  1.78125 0.875 0  2.34375 0.125 0  2.625 0.02734375 0  2.4375 -0.02734375 0  2.25 0.02734375 0  2.0625 -0.02734375 0  1.59375 -0.125 0  1.875 0.02734375 0  1.6875 -0.0
[...]
<PointData  Vectors="f_127"> 
<DataArray  type="Float64"  Name="f_127"  NumberOfComponents="3" format="ascii">-2.6067789294495045e-17 4.1510797461943136e-18 0.0000000000000000e+00  2.6393700159177601e-15 -1.4267502482502123e-16 0.0000000000000000e+00  2.9502449809669162e-15 -2.0014480085629553e-16 0.0000000000000000e+00  4.4240597518209225e-15 2.4131360902515484e-16 0.0000000000000000e+00  3.1527102622312854e-15 2.1036343395974537e-16 0.0000000000000000e+00  -4.9937616943892239e-02 -1.2476611221538263e-03 0.0000000000000000e+00  4.5888835201714872e-15 1.7874779392510740e-15 0.0000000000000000e+00  2.3563872666529520e-15 1.3684496475072783e-15 0.0000000000000000e+00  -4.9937616943893454e-02 -1.2476611221545657e-03 0.0000000000000000e+00  -1.3907902582916075e-15 1.4243668149804530e-17 0.0000000000000000e+00  1.2918713896308060e-15 9.8467641384435734e-17 0.0000000000000000e+00  1.6326329232152378e-15 1.7333733543951772e-15 0.0000000000000000e+00  1.1260504135636497e-15 -3.1342776759319447e-17 0.0000000000000000e+00  2.5119072203110616e-15 1.2594214243015023e-16 0.0000000000000000e+00  3.3342612454577847e-15 1.1410595551615772e-15 0.0000000000000000e+00  3.9469269309518721e-15 -2.0824141860921961e-16 0.0000000000000000e+00  -2.4968808471946127e-02 -6.2383056107702438e-04 0.0000000000000000e+00  -4.9937616943893169e-02 -1.2476611221536624e-03 0.0000000000000000e+00  -2.4968808471946592e-02 -6.2383056107756074e-04 0.0000000000000000e+00  -6.7187629969711139e-16 6.6873297516914491e-18 0.0000000000000000e+00  -7.0209787026826430e-04 -1.7541490167493099e-05 0.0000000000000000e+00  3.5158981406909934e-15 2.7545670956307385e-16 0.0000000000000000e+00  3.7259828639270302e-15 1.3901955591648004e-15 0.0000000000000000e+00  3.4522691840897213e-15 -2.6595885442211826e-16 0.0000000000000000e+00  3.7521051716666514e-16 5.3952495161960454e-16 0.0000000000000000e+00  2.9401736595445077e-15 8.4692025957281123e-16 0.0000000000000000e+00  3.0440618762761151e-15 1.4610623115578608e-16 0.0000000000000000e+00  4.1222121240957887e-15 -1.9752830552121999e-16 0.0000000000000000e+00  -2.4968808471947806e-02 -6.2383056107636421e-04 0.0000000000000000e+00  -5.8995740635084453e-03 -1.4739728578832035e-04 0.0000000000000000e+00  -1.3152220294707285e-05 -3.2860025930910414e-07 0.0000000000000000e+00  1.4736922446123753e-15 1.3725305304517618e-16 0.0000000000000000e+00  2.0428740536782159e-15 -1.2896281326693165e-16 0.0000000000000000e+00  4.9969043145014581e-16 9.6053420214326338e-16 0.0000000000000000e+00  1.2377175648345129e-15 1.3278595533859570e-15 0.0000000000000000e+00  5.9385239407274029e-16 -3.0205382762096387e-17 0.0000000000000000e+00  3.5889849224822296e-16 3.0661835868608276e-17 0.0000000000000000e+00  -1.5681069810728995e-04 -3.9178203416370001e-06 0.0000000000000000e+00  -1.1907808976952336e-06 -2.9750939679756106e-08 0.0000000000000000e+00  -3.3088068889650290e-16 1.0644601686569929e-18 0.0000000000000000e+00  -1.2484404235973079e-02 -3.1191528053866008e-04 0.0000000000000000e+00  -1.2484404235975322e-02 -3.1191528053841515e-04 0.0000000000000000e+00  -1.2314214744257335e-15 2.0435875141871160e-17 0.0000000000000000e+00  -4.9937616943893273e-02 -1.2476611221542320e-03 0.0000000000000000e+00  -3.7453212707920541e-02 -9.3574584161550556e-04 0.0000000000000000e+00  -3.7453212707919195e-02 -9.3574584161537741e-04 0.0000000000000000e+00  -4.9937616943892482e-02 -1.2476611221539232e-03 0.0000000000000000e+00  -4.2801304895183129e-05 -1.0693646850046233e-06 0.0000000000000000e+00  -1.9670206611599435e-03 -4.9144820187001407e-05 0.0000000000000000e+00  -3.7255514847668983e-06 -9.3080646395590020e-08 0.0000000000000000e+00  -2.1293021631974833e-03 -5.3199325255656057e-05 0.0000000000000000e+00  -8.0549564589880249e-03 -2.0124820985707175e-04 0.0000000000000000e+00  -1.4403030836542220e-02 -3.5985100442540813e-04 0.0000000000000000e+00  -3.7453212707921159e-02 -9.3574584161484398e-04 0.0000000000000000e+00  -1.4565138275303226e-02 -3.6390116062780194e-04 0.0000000000000000e+00  -1.2484404235975280e-02 -3.1191528053771102e-04 0.0000000000000000e+00  -3.6672937443171856e-02 -9.1625113658142063e-04 0.0000000000000000e+00  -4.6867486952680683e-05 -1.1709557810214817e-06 0.0000000000000000e+00  2.3055283303558462e-15 1.0021957369041635e-15 0.0000000000000000e+00  1.1440025939316153e-15 2.5310120135465886e-16 0.0000000000000000e+00  5.5733210425474869e-15 2.1245722375835691e-16 0.0000000000000000e+00  4.6670465818858002e-15 4.6078014029749586e-16 0.0000000000000000e+00  4.2150357323645048e-15 1.4543550822515324e-15 0.0000000000000000e+00  2.9529213350092187e-15 9.6501922102461632e-16 0.0000000000000000e+00  5.3677652761828182e-15 1.9502732755428376e-16 0.0000000000000000e+00  -3.4740016523092973e-03 -8.6795827775320008e-05 0.0000000000000000e+00  -2.3408257942451070e-02 -5.8484115100900956e-04 0.0000000000000000e+00  -3.0185164439375024e-03 -7.5415805641737603e-05 0.0000000000000000e+00  -4.7805786436156517e-06 -1.1943986157347983e-07 0.0000000000000000e+00  -7.5002855918229110e-04 -1.8739009408660572e-05 0.0000000000000000e+00  1.1250440485100414e-15 3.0409443612257822e-16 0.0000000000000000e+00  2.0300016141037751e-15 -1.6879013205587965e-16 0.0000000000000000e+00  1.9644210439667096e-15 1.8976850385240455e-16 0.0000000000000000e+00  -3.3706996070787876e-04 -8.4214888708514149e-06 0.0000000000000000e+00  -2.7753196517503844e-04 -6.9339681031954673e-06 0.0000000000000000e+00  -2.5879129614153378e-02 -6.4657438361567093e-04 0.0000000000000000e+00  3.1668136951258873e-16 1.6273811695323958e-15 0.0000000000000000e+00  1.7170820353553139e-15 1.6782749131450203e-15 0.0000000000000000e+00  -4.1559440123901227e-07 -1.0383373869107037e-08 0.0000000000000000e+00  -1.3764762757571538e-05 -3.4390426220548030e-07 0.0000000000000000e+00  -2.0032874117098485e-05 -5.0050922829536593e-07 0.0000000000000000e+00  -6.2790176154441413e-06 -1.5687745149419709e-07 0.0000000000000000e+00  -1.2800205659309275e-06 -3.1980538238924746e-08 0.0000000000000000e+00  -5.3869507158001411e-07 -1.3458968934710834e-08 0.0000000000000000e+00  3.3801133098993430e-16 3.7008394795141009e-17 0.0000000000000000e+00  1.0361024025163082e-17 -2.4086834931318919e-17 0.0000000000000000e+00  -8.0453299503176776e-04 -2.0100769734549006e-05 0.0000000000000000e+00  5.9254170423487981e-16 -9.6571476307275359e-17 0.0000000000000000e+00  1.3775490581483822e-15 7.3258072764341245e-17 0.0000000000000000e+00  4.0333865055925865e-15 7.9047408726357075e-16 0.0000000000000000e+00  -6.4260105481250346e-05 -1.6054998249234102e-06 0.0000000000000000e+00  1.0280848646089974e-15 7.1851812435246962e-17 0.0000000000000000e+00  8.6582056729274330e-16 -6.2732540243424341e-17 0.0000000000000000e+00  -1.4263049846501769e-06 -3.5635365670284457e-08 0.0000000000000000e+00  -1.4047001316682770e-03 -3.5095582243241090e-05 0.0000000000000000e+00  -1.0038184356991524e-04 -2.5079795792244198e-06 0.0000000000000000e+00  2.3383896234025782e-15 -1.3781566525223586e-16 0.0000000000000000e+00  9.4015001526984950e-16 1.3708109296986604e-15 0.0000000000000000e+00  -3.3205047377624752e-02 -8.2960800309822699e-04 0.0000000000000000e+00  2.9760374776989998e-15 -2.1420566491813421e-16 0.0000000000000000e+00  6.3226647907335681e-15 -1.5815190879033391e-16 0.0000000000000000e+00  1.1987876208672411e-15 1.0109313125920731e-15 0.0000000000000000e+00  -9.3633031769808691e-03 -2.3393646040363540e-04 0.0000000000000000e+00  3.9438666276809577e-15 -1.8275133114580101e-16 0.0000000000000000e+00  3.7071352663806515e-15 1.1628914406901355e-15 0.0000000000000000e+00  -7.1922301401357129e-03 -1.7969351516018020e-04 0.0000000000000000e+00  -1.6849208527135912e-02 -4.2096727286660020e-04 0.0000000000000000e+00  -3.1211010589932978e-02 -7.7978820134545030e-04 0.0000000000000000e+00  -9.1185109370604239e-03 -2.2782047451048144e-04 0.0000000000000000e+00  -1.8726606353959976e-02 -4.6787292080786267e-04 0.0000000000000000e+00  -3.2422308331282783e-04 -8.1005174179660154e-06 0.0000000000000000e+00  -8.0628444023998387e-03 -2.0144528534761627e-04 0.0000000000000000e+00  -4.9937616943892461e-02 -1.2476611221548311e-03 0.0000000000000000e+00  -4.3695414825905693e-02 -1.0917034818845801e-03 0.0000000000000000e+00  -4.1014791738948356e-02 -1.0247297371715541e-03 0.0000000000000000e+00  -4.2157781085856535e-02 -1.0532866339246355e-03 0.0000000000000000e+00  -1.8726606353959591e-02 -4.6787292080796296e-04 0.0000000000000000e+00  -1.5078270870778192e-02 -3.7672146782444390e-04 0.0000000000000000e+00  -5.0533765705176660e-07 -1.2625554946558171e-08 0.0000000000000000e+00  -2.4617868420774440e-06 -6.1506252661132187e-08 0.0000000000000000e+00  -3.4093878119408368e-07 -8.5181479628377494e-09 0.0000000000000000e+00  -1.8726606353961027e-02 -4.6787292080771473e-04 0.0000000000000000e+00  -9.9581265751485441e-04 -2.4879776281999924e-05 0.0000000000000000e+00  -9.5120753127934630e-03 -2.3765344213492009e-04 0.0000000000000000e+00  -1.7275135699893144e-02 -4.3160880537911978e-04 0.0000000000000000e+00  -3.6872973991878620e-03 -9.2124892861124283e-05 0.0000000000000000e+00  -1.4174139985123052e-04 -3.5413230497750359e-06 0.0000000000000000e+00  -8.7969266401576171e-04 -2.1978588556727601e-05 0.0000000000000000e+00  -5.8568087057120253e-06 -1.4632881823861939e-07 0.0000000000000000e+00  2.7867401836179105e-15 5.7711177477793291e-18 0.0000000000000000e+00  5.4065348798204448e-15 -2.3026563746091827e-17 0.0000000000000000e+00  4.6838541447163538e-15 -9.0545650612745533e-18 0.0000000000000000e+00  2.8997622826579733e-15 -1.0184618775080817e-17 0.0000000000000000e+00  4.2567303612867733e-15 -3.9832965393557375e-17 0.0000000000000000e+00  4.9983237198471231e-15 -6.4118273014594023e-18 0.0000000000000000e+00  3.6514469555293166e-15 1.5833984391866246e-18 0.0000000000000000e+00  2.9176546575338504e-15 -1.4282973127985973e-17 0.0000000000000000e+00  -1.5324340310501204e-03 -3.8286936377560728e-05 0.0000000000000000e+00  -3.4929829841021050e-04 -8.7270064853845438e-06 0.0000000000000000e+00  -7.8647667960571980e-05 -1.9649643603389759e-06 0.0000000000000000e+00  -2.0711451457127181e-05 -5.1746307314645666e-07 0.0000000000000000e+00  -2.5673993143322070e-05 -6.4144917160540851e-07 0.0000000000000000e+00  -4.1618195540023210e-02 -1.0398054157809166e-03 0.0000000000000000e+00  -3.0062272005722156e-02 -7.5108766337874668e-04 0.0000000000000000e+00  -3.9434657750108551e-03 -9.8525104622820874e-05 0.0000000000000000e+00  -6.6925241180064935e-03 -1.6720866276801247e-04 0.0000000000000000e+00  -6.2422021179865290e-03 -1.5595764026930860e-04 0.0000000000000000e+00  2.8885267316965308e-15 -6.5666587976766273e-18 0.0000000000000000e+00  -1.8782675564703512e-06 -4.6927377207621737e-08 0.0000000000000000e+00  -1.4619660160818094e-04 -3.6526335672159378e-06 0.0000000000000000e+00  -1.8360094205949195e-06 -4.5871583029860272e-08 0.0000000000000000e+00  -7.1399419146835736e-06 -1.7838712363897724e-07 0.0000000000000000e+00  -1.1824434214231919e-02 -2.9542632915631527e-04 0.0000000000000000e+00  -5.9197234666645880e-03 -1.4790070642557815e-04 0.0000000000000000e+00  -1.6073670453817079e-02 -4.0159092369279733e-04 0.0000000000000000e+00  -7.3350549738159347e-03 -1.8326190715014043e-04 0.0000000000000000e+00  -4.9937616943892739e-02 -1.2476611221544464e-03 0.0000000000000000e+00  -2.3585406070010251e-03 -5.8926708969462488e-05 0.0000000000000000e+00  -3.7819864250807967e-03 -9.4490640839550166e-05 0.0000000000000000e+00  -2.9890018255755001e-02 -7.4678400773621099e-04 0.0000000000000000e+00  -4.3552008720410186e-02 -1.0881205671710516e-03 0.0000000000000000e+00  -1.8021523923684261e-07 -4.5025682351838796e-09 0.0000000000000000e+00  -1.9959386352838070e-07 -4.9867303403422531e-09 0.0000000000000000e+00  -3.1211010589932663e-02 -7.7978820134630043e-04 0.0000000000000000e+00  -3.9022942555851206e-05 -9.7496458905994406e-07 0.0000000000000000e+00  -1.9206940417675213e-02 -4.7987377654703465e-04 0.0000000000000000e+00  -4.3262024742420635e-02 -1.0808754930658046e-03 0.0000000000000000e+00  -5.9869931870060889e-03 -1.4958139965713776e-04 0.0000000000000000e+00  -3.1966099273306896e-02 -7.9865363489460442e-04 0.0000000000000000e+00  1.3235259146709963e-15 5.8225766460177183e-18 0.0000000000000000e+00  -1.7371163936500314e-05 -4.3400801071442601e-07 0.0000000000000000e+00  -5.2571787560373841e-03 -1.3134742800160958e-04 0.0000000000000000e+00  -8.3781202921215787e-06 -2.0932226050002405e-07 0.0000000000000000e+00  -1.9862503053045429e-02 -4.9625261204917543e-04 0.0000000000000000e+00  -3.7733964788701783e-05 -9.4276026046512628e-07 0.0000000000000000e+00  -1.2254154260947058e-04 -3.0616262425280646e-06 0.0000000000000000e+00  -9.2053865167996352e-16 1.9883688017664665e-17 0.0000000000000000e+00  -6.2422021179873201e-03 -1.5595764026923810e-04 0.0000000000000000e+00  -2.1728442051154313e-03 -5.4287196807137567e-05 0.0000000000000000e+00  -2.9005945312259485e-03 -7.2469598054492078e-05 0.0000000000000000e+00  -1.9258498215262608e-04 -4.8116191668948768e-06 0.0000000000000000e+00  1.0072469898349812e-15 7.8140319356234947e-16 0.0000000000000000e+00  4.6214338278119660e-16 1.7449263872120062e-15 0.0000000000000000e+00  -3.5215754407321055e-04 -8.7984430058586453e-06 0.0000000000000000e+00  6.9246670224285954e-16 7.1361650071150499e-16 0.0000000000000000e+00  -7.6841016405938606e-17 7.4819043107159357e-17 0.0000000000000000e+00  8.2219414937041888e-16 -8.6135494387442176e-17 0.0000000000000000e+00  -2.4589891498819366e-06 -6.1436354201447631e-08 0.0000000000000000e+00  -2.6924091188629075e-02 -6.7268211583051084e-04 0.0000000000000000e+00  -2.0849656988316975e-02 -5.2091605540180983e-04 0.0000000000000000e+00  -2.4976014869122331e-02 -6.2401060854683926e-04 0.0000000000000000e+00  -3.5645774106284032e-16 -7.4696915784396784e-18 0.0000000000000000e+00  -2.7026632192956568e-16 1.1972174709065291e-17 0.0000000000000000e+00  8.6661188447782259e-15 -5.8416934879832498e-18 0.0000000000000000e+00  -4.9937616943892940e-02 -1.2476611221545043e-03 0.0000000000000000e+00  -1.4059709048454831e-16 3.3704733105911029e-17 0.0000000000000000e+00  -4.3695414825907226e-02 -1.0917034818847908e-03 0.0000000000000000e+00  -4.9937616943893245e-02 -1.2476611221536420e-03 0.0000000000000000e+00  -3.1211010589933696e-02 -7.7978820134622974e-04 0.0000000000000000e+00  -7.3136360749731996e-03 -1.8272676893159334e-04 0.0000000000000000e+00  -4.9325653303669548e-04 -1.2323715810265791e-05 0.0000000000000000e+00  -2.0440169741180712e-02 -5.1068526447526079e-04 0.0000000000000000e+00  -1.3548778447822843e-03 -3.3850802573147578e-05 0.0000000000000000e+00  -8.8204056045758990e-04 -2.2037249326930744e-05 0.0000000000000000e+00  -2.3294452188718124e-04 -5.8199778299397891e-06 0.0000000000000000e+00  -1.3800378702709667e-05 -3.4479410253486791e-07 0.0000000000000000e+00  -8.6362745645874778e-06 -2.1577208960428774e-07 0.0000000000000000e+00  -4.1888074500832974e-06 -1.0465481691624352e-07 0.0000000000000000e+00  -3.5236649388606510e-02 -8.8036634920993391e-04 0.0000000000000000e+00  -2.8020326474948565e-06 -7.0007088199837017e-08 0.0000000000000000e+00  -1.3108107576494808e-03 -3.2749813082874894e-05 0.0000000000000000e+00  -2.4473841211697506e-02 -6.1146410378128883e-04 0.0000000000000000e+00  -3.2373554167474958e-03 -8.0883364869474550e-05 0.0000000000000000e+00  -2.2172910963250800e-17 1.3466824945012445e-16 0.0000000000000000e+00  1.6161730569083615e-15 -5.5288525000695974e-17 0.0000000000000000e+00  -7.9542971281424783e-07 -1.9873329363950802e-08 0.0000000000000000e+00  -7.0649481499792632e-07 -1.7651343949492518e-08 0.0000000000000000e+00  -3.6015035004823559e-03 -8.9981384249979116e-05 0.0000000000000000e+00  -1.0141199188201124e-04 -2.5337172106087638e-06 0.0000000000000000e+00  4.0311224690129956e-15 1.3781506536255351e-15 0.0000000000000000e+00  -6.1488897443547113e-07 -1.5362627527114006e-08 0.0000000000000000e+00  -4.0352375387844347e-05 -1.0081796644734737e-06 0.0000000000000000e+00  2.9681253183610157e-15 1.1961576199764922e-16 0.0000000000000000e+00  -3.8281087400026420e-02 -9.5642978952012458e-04 0.0000000000000000e+00  -4.2901231796747527e-02 -1.0718612997775681e-03 0.0000000000000000e+00  -2.5164021878499167e-05 -6.2870784876615845e-07 0.0000000000000000e+00  -7.1952362499628573e-05 -1.7976862091807820e-06 0.0000000000000000e+00  -2.0301781832436330e-02 -5.0722772636926732e-04 0.0000000000000000e+00  -7.5700122076712978e-03 -1.8913217137106158e-04 0.0000000000000000e+00  -1.0285590959713339e-06 -2.5697925078165615e-08 0.0000000000000000e+00  -4.7963698420368022e-04 -1.1983439629044307e-05 0.0000000000000000e+00  6.2159801676305260e-16 1.5661838437437351e-15 0.0000000000000000e+00  -2.6455491041160110e-04 -6.6097442475930938e-06 0.0000000000000000e+00  -1.6026232142264663e-03 -4.0040570618784811e-05 0.0000000000000000e+00  -1.1978175220515209e-05 -2.9926745402224090e-07 0.0000000000000000e+00  -9.7994868604644961e-03 -2.4483424562615449e-04 0.0000000000000000e+00  -3.3906398404933534e-06 -8.4713082913342503e-08 0.0000000000000000e+00  -1.2061322197268764e-03 -3.0134483195239927e-05 0.0000000000000000e+00  1.0241999949430134e-15 7.6812401374193721e-17 0.0000000000000000e+00  1.3466396749240400e-15 -1.0064785152897435e-16 0.0000000000000000e+00  -1.7661718226734079e-02 -4.4126733573714508e-04 0.0000000000000000e+00  -2.0570148437207929e-04 -5.1393270345406879e-06 0.0000000000000000e+00  -1.4375639569099050e-02 -3.5916665019463301e-04 0.0000000000000000e+00  -1.3636239150602204e-02 -3.4069317844498371e-04 0.0000000000000000e+00  -1.0877935155349742e-04 -2.7177862312239349e-06 0.0000000000000000e+00  4.1339342426332506e-15 1.3683611588996161e-15 0.0000000000000000e+00  -1.7964987215416659e-06 -4.4884431847838021e-08 0.0000000000000000e+00  -7.4359658811887427e-03 -1.8578310506940795e-04 0.0000000000000000e+00  -3.8751411362881923e-04 -9.6818054889739649e-06 0.0000000000000000e+00  -7.0064525818906438e-04 -1.7505197534025503e-05 0.0000000000000000e+00  -3.6110162317394189e-02 -9.0219054082286564e-04 0.0000000000000000e+00  -2.7567724693489950e-04 -6.8876290899501667e-06 0.0000000000000000e+00  2.5026272240727306e-15 1.8592407224112047e-15 0.0000000000000000e+00  -2.2629094915664659e-07 -5.6537412432816514e-09 0.0000000000000000e+00  -4.9791023411235019e-06 -1.2439985552324471e-07 0.0000000000000000e+00  -6.1666383049391702e-06 -1.5406972359973041e-07 0.0000000000000000e+00  -1.5405457208168789e-06 -3.8489601495217327e-08 0.0000000000000000e+00  -5.6547107951170747e-07 -1.4127952522693821e-08 0.0000000000000000e+00  -2.3593593053257471e-07 -5.8947160401737359e-09 0.0000000000000000e+00  -1.1115126939526771e-06 -2.7770471141961214e-08 0.0000000000000000e+00  -9.7356694732789131e-06 -2.4323980634646923e-07 0.0000000000000000e+00  -1.7342445274940962e-07 -4.3329047251457919e-09 0.0000000000000000e+00  -1.7314323908563651e-05 -4.3258789833014404e-07 0.0000000000000000e+00  4.4520346964519157e-15 1.2292801939860835e-15 0.0000000000000000e+00  -1.9005747583333808e-02 -4.7484709540294133e-04 0.0000000000000000e+00  -8.8749438758579734e-07 -2.2173509035017986e-08 0.0000000000000000e+00  -1.4824516506916949e-04 -3.7038156854580543e-06 0.0000000000000000e+00  -2.8501293858012464e-02 -7.1208756953019181e-04 0.0000000000000000e+00  -3.4332111648927147e-02 -8.5776702148054320e-04 0.0000000000000000e+00  -6.4338201488206971e-05 -1.6074510055564404e-06 0.0000000000000000e+00  -1.4728277777293658e-02 -3.6797710230369619e-04 0.0000000000000000e+00  2.9090816323270521e-15 3.9229719975181883e-16 0.0000000000000000e+00  7.3003250780584847e-16 -3.8881346631622729e-17 0.0000000000000000e+00  4.3989664219586638e-16 4.3631964159486415e-17 0.0000000000000000e+00  2.4217307496335712e-15 1.2689639687364933e-16 0.0000000000000000e+00  -2.9006672555140503e-05 -7.2471414954707624e-07 0.0000000000000000e+00  1.3254679242791312e-15 1.1546818260242835e-17 0.0000000000000000e+00  -3.6668920570481441e-02 -9.1615077744986795e-04 0.0000000000000000e+00  -3.2050830447699