<?xml version="1.0"?>
<VTKFile type="UnstructuredGrid"  version="0.1"  >
<UnstructuredGrid>
<Piece  NumberOfPoints="2486" NumberOfCells="4758">
<Points>
<DataArray  type="Float64"  NumberOfComponents="3"  format="ascii">0 0 0  1.5 -0.11 0  3 -0.11 0  3 0.11 0  1.5 0.11 0  0 1 0  3 0.89 0  1.5 0.89 0  -1 1 0  -1 0 0  0.75 0.055 0  0.75 0.9450000000000001 0  0.75 -0.055 0  2.25 0.11 0  2.25 0.89 0  2.25 -0.11 0  0 0.5 0  -0.5 1 0  -1 0.5 0  -0.5 0 0  1.094383333333333 0.5000000000000001 0  1.875 0.4999999999999999 0  3 0.5 0  -0.5 0.5 0  0.5070166666666667 0.5 0  2.625 0.89 0  2.4375 0.4999999999999999 0  1.875 -0.11 0  1.875 0.11 0  2.625 -0.11 0  2.625 0.11 0  1.4847 0.4999999999999999 0  1.125 0.0825 0  1.125 -0.0825 0  1.125 0.9175 0  0.375 -0.0275 0  0.375 0.0275 0  0.375 0.9725 0  1.875 0.89 0  -0.25 0 0  0 0.25 0  -1 0.25 0  -0.75 0 0  -0.75 1 0  -1 0.75 0  0 0.75 0  -0.25 1 0  0.8007 0.6284781906991261 0  0.7502240492128783 0.3439604277830669 0  0.2871696633386244 0.3067325786606029 0  0.2535083333333333 0.625 0  2.15625 0.3951442307692308 0  2.71875 0.3951442307692308 0  -0.625 0.75 0  -0.2916666666666666 0.2916666666666666 0  -0.625 0.25 0  -0.34375 0.734375 0  1.289541666666667 0.6955610000000001 0  1.289541666666667 0.3044390000000001 0  1.67985 0.6876442307692306 0  2.779101533575318 0.662886089976267 0  2.0625 0.695 0  1.67985 0.3123557692307692 0  0.5708508394634532 0.7539827192183139 0  -0.75 0.46875 0  0.5625 0.04125 0  0.5625 -0.04125 0  0.5312392005167818 0.2701993799038583 0  0.9375 0.06875000000000001 0  0.9375 -0.06875000000000001 0  1.015941666666667 0.284375 0  -0.2734375 0.5182291666666666 0  0.1875 0.9862500000000001 0  2.8125 0.11 0  2.8125 -0.11 0  2.4375 0.11 0  2.4375 -0.11 0  2.0625 0.11 0  2.0625 -0.11 0  1.6875 0.11 0  1.6875 -0.11 0  0.9375 0.93125 0  1.01335747198695 0.7146849024340032 0  2.560965464181646 0.6807137191434397 0  2.28635 0.6674038461538462 0  1.3125 0.09625 0  1.3125 -0.09625 0  0.1875 0.01375 0  0.1875 -0.01375 0  1.96875 0.2988069408777868 0  2.34375 0.2988069408777868 0  3 0.305 0  1.484772131450611 0.695364224460634 0  1.484772131450611 0.304635775539366 0  1.289541666666667 0.5004022521145719 0  3 0.6950000000000001 0  2.544766118608008 0.2943630981386847 0  1.871175 0.6913221153846153 0  0.9122376534229071 0.4441817639934367 0  -0.8125 0.6649305555555556 0  0.5625 0.95875 0  1.3125 0.9037500000000001 0  1.672488572485207 0.4999999999999999 0  2.4375 0.89 0  2.0625 0.89 0  1.6875 0.89 0  -0.8125 0.1875 0  2.8125 0.89 0  0.3766363285925735 0.7769401789276308 0  0.1814836777190746 0.7984950970483535 0  -0.1289930555555556 0.625 0  -0.4473039215686274 0.1825980392156863 0  -0.1309523809523809 0.375 0  -0.1614583333333333 0.1614583333333333 0  -0.125 1 0  0 0.875 0  -0.178679435483871 0.821320564516129 0  -0.8442089083510262 0.8442089083510262 0  0 0.375 0  0.1791575019517981 0.4562225424860679 0  0.8336637017255101 0.1994154310157715 0  0.8617954428296231 0.7831644799633584 0  -1 0.375 0  0.3451828364971285 0.4624157146531082 0  2.604535825777278 0.5184127072218815 0  -0.4457323438634713 0.3459343228031954 0  0.6372117479565959 0.6022908818469848 0  2.159577956386147 0.5607680853947143 0  0.6753274893725389 0.2043702708792219 0  0.2718731069879366 0.1484917228917734 0  -0.4793074324324325 0.8334037162162162 0  -0.6708984375 0.6019965277777778 0  0.4597286121642561 0.6468982047134879 0  0 0.125 0  2.68827881187708 0.2471788540188583 0  2.846141330101734 0.2652967979791019 0  2.201164404585799 0.2519275089004319 0  2.836359011709165 0.5093068845278468 0  2.013601828922982 0.4421454529359434 0  2.298898171077018 0.4421454529359434 0  0.13694843700799 0.3119584733217119 0  0.7131685409441157 0.8000252283219255 0  1.821883432257483 0.2540531784013184 0  1.59375 1.387778780781446e-17 0  1.96875 1.387778780781446e-17 0  2.15625 -1.387778780781446e-17 0  2.34375 1.387778780781446e-17 0  2.53125 -1.387778780781446e-17 0  2.71875 1.387778780781446e-17 0  3 0 0  1.78125 -1.387778780781446e-17 0  0.7740760185064572 0.486465198900063 0  0.6111837054779449 0.3948029886187454 0  0.9714011846291715 0.5762171165997888 0  0.4199125993307094 0.1702268985733777 0  -0.753125 0.321875 0  -0.3062406386165577 0.1468843613834422 0  -0.375 1 0  0 0.625 0  -0.3939144736842105 0.598547149122807 0  -0.3108739190968454 0.8721282949753572 0  -0.5817373642600167 0.3846186821300083 0  -0.7048572593171034 0.8663213703414483 0  -0.5727211097204838 0.119889445139758 0  -0.532258721798014 0.6401206391009929 0  1.4138125 4.163336342344337e-17 0  1.155830640482634 0.7683936467866901 0  1.21133750003992 0.1904545449101797 0  1.19216404103705 0.402420626057286 0  1.19176095896295 0.597981626057286 0  1.386919292296283 0.402420626057286 0  1.387058646597614 0.597981626057286 0  2.425265226316374 0.6408922172528491 0  2.71875 0.7877738236589985 0  0.135655219953553 0.1400017752026174 0  1.578596885371184 0.5976499557264942 0  1.578596885371184 0.4023500442735057 0  1.586025147146553 0.7853559995513051 0  1.586025147146553 0.2146440004486949 0  1.773744286242603 0.410005826923077 0  1.777352856878698 0.5937470865384615 0  1.78125 0.7924291379100935 0  2.15625 0.7925 0  1.96875 0.7925 0  1.988961503884934 0.5780658616491015 0  2.877114748342798 0.764485334944998 0  1.399144157736092 0.7999771509467053 0  1.399144157736092 0.2000228490532946 0  2.34375 0.7910433368998173 0  0.4501094590731608 0.3778246776625377 0  -0.8659517426273459 0.3977463136729223 0  -0.875 0 0  -1 0.125 0  2.896142121213328 0.3895024491983984 0  0.28125 0.9793750000000001 0  0.46875 0.965625 0  1.21875 -0.08937500000000001 0  1.21875 0.08937500000000001 0  0.8901303088876997 0.3162836579923611 0  0.1267541666666667 0.580073025835633 0  -0.8681525617639529 0.5391545058883769 0  -0.1483856872302484 0.5001443079909847 0  -0.625 0 0  -0.375 0 0  -0.875 1 0  -0.125 0 0  -1 0.875 0  -0.625 1 0  -1 0.625 0  -0.6946518160894539 0.1464554482683619 0  2.898148016482 0.6198060768784698 0  -0.3368172572848583 0.4093140800880537 0  2.46422691939076 0.7592464239796078 0  -0.2231675762042645 0.7056133541213269 0  1.03125 0.075625 0  1.03125 -0.075625 0  2.076767053489867 0.2347628814225466 0  0.4827846480824715 0.8419466462734392 0  -0.6341667084936641 0.4900882883376927 0  2.720341593786231 0.5111656210040152 0  2.531070243560082 0.4180139322870758 0  1.053166748634761 0.8249064831539396 0  0.567295429670854 0.158513637263381 0  0.9049489457521325 0.6767120396115525 0  0.950871087235459 0.1859663129476055 0  1.076592493714973 0.3843915374554961 0  1.134524010423599 0.2808635614119002 0  1.070470833333333 0.1834375 0  -0.7604601461971343 0.7665781777900219 0  -0.5907347052814409 0.859096497234703 0  2.665955311258193 0.6218998416071365 0  2.273739267930041 0.5537226580131959 0  2.173413088872169 0.6729936666935236 0  0.1598974982340055 0.6878361370653286 0  0.84375 -0.061875 0  0.84375 0.061875 0  1.887870640431103 0.3835584471389212 0  0.2868589992280149 0.8583277302702175 0  2.42004783132493 0.3856933034542729 0  1.079061772075075 0.6126065999237753 0  2.830158333333333 -1.387778780781446e-17 0  2.608371135257331 0.7806485277607667 0  0.65625 0.951875 0  3 0.2075 0  0.1151276703345761 0.8945952185372313 0  0.362624580489947 0.5793882459178553 0  2.516319600931401 0.581729531333848 0  -0.8579141681780026 0.2878719580321406 0  -0.1800595238095238 0.2730654761904762 0  0.60222526818285 0.8578161570388642 0  0.8679699448850886 0.5432905449262235 0  2.53125 0.11 0  2.442792854425427 0.230306842050372 0  2.34375 0.11 0  0.1986992777160928 0.2255108581830463 0  0.6653207842432338 0.7049492272481978 0  2.90625 0.11 0  2.250724084124319 0.3483848612293553 0  2.061775915875681 0.3483848612293554 0  1.96875 0.11 0  2.295576800764281 0.2050480769230769 0  1.916443050020495 0.207100645173101 0  0.65625 0.048125 0  0.65625 -0.048125 0  -0.4559331695681008 0.723105436888684 0  0.3959392018451636 0.2797091171774029 0  1.261900456782561 0.8039695542726953 0  0.6627636857048536 0.4937090798614457 0  -0.2358128762540495 0.3805897987620613 0  1.27243125 0 0  -0.7695772529441884 0.5707379647297427 0  -0.9153083204732511 0.6875 0  -0.5337427384224719 0.2949335326481405 0  2.53125 0.89 0  -0.1098425368958015 0.7342945621870717 0  1.721893975103783 0.2126227416642119 0  2.90625 -0.11 0  -0.3021057293002611 0.6418173795459495 0  2.595489121964939 0.2067972535251948 0  2.619875963910532 0.3652663638220494 0  0.656857383884845 0.304168143165384 0  0.46875 -0.034375 0  0.46875 0.034375 0  2.15625 0.11 0  0.3657820726759922 0.6784371662555774 0  0.2736174875952295 0.738442510468524 0  -0.3961952022692456 0.4946284914468091 0  -0.7787948732778861 0.09456837557403797 0  -0.9166666666666666 0.1875 0  0.07965531387692103 0.4375 0  0.7948385434194206 0.8564425963419738 0  -0.4068704224847951 0.9040023053789293 0  0.4693953586302065 0.7446424402859765 0  -0.393607115769432 0.09824630723118558 0  0.9516859192934002 0.8306041749057135 0  0.3835577527856151 0.8747848497498005 0  1.683512530524934 0.792343867075897 0  1.38716431541669 0.2971792626997513 0  1.387157034460467 0.6955969508880405 0  1.289479252694208 0.597981626057286 0  1.387120418780798 0.5000000000000001 0  1.191962085447465 0.5004022521145719 0  3 0.5975 0  3 0.4025 0  3 0.7925 0  0.09375 0.006875 0  0.09375 -0.006875 0  1.289541666666667 0.4018184872874161 0  0.7800457068308927 0.7260442637475403 0  -0.1875 0.9213734559124619 0  -0.0985447220284108 0.8788004138970833 0  -0.9092261904761905 0.09077380952380952 0  0.28125 0.020625 0  0.28125 -0.020625 0  1.482758743922094 0.4041643460286588 0  1.482824228116016 0.5957726865915347 0  1.775513914027358 0.6894096148192219 0  1.87301394285134 0.5956595871038549 0  1.966768082283951 0.6967721945037992 0  1.008858015450243 0.453988246515258 0  0.8324408619627667 0.3921150434834321 0  -0.361374766296655 0.2255589031291991 0  -0.2670314939447324 0.7888651642865234 0  -0.6822915278976419 0.3938386495297371 0  2.104819946377027 0.4790230009147762 0  1.305499963764833 0.19015239
[...]
<PointData  Vectors="f_165"> 
<DataArray  type="Float64"  Name="f_165"  NumberOfComponents="3" format="ascii">-4.5459709237288522e-18 -3.1690653405773619e-18 0.0000000000000000e+00  2.4194145725040471e-03 -1.3078775413318779e-16 0.0000000000000000e+00  2.4194145725071215e-03 -1.7352339796100926e-16 0.0000000000000000e+00  -2.4194145725001319e-03 9.0604073267851594e-17 0.0000000000000000e+00  -2.4194145725004012e-03 7.9515235172156521e-17 0.0000000000000000e+00  -2.1994677931832830e-02 1.1217349126537759e-15 0.0000000000000000e+00  -1.9575263359327154e-02 1.4451420174622829e-15 0.0000000000000000e+00  -1.9575263359328438e-02 1.9948065699694352e-15 0.0000000000000000e+00  -2.1994677931833791e-02 6.6109762869526121e-16 0.0000000000000000e+00  -1.3202974446727198e-15 1.6613163003086931e-17 0.0000000000000000e+00  -1.2097072862497255e-03 9.6848829615563885e-17 0.0000000000000000e+00  -2.0784970645580731e-02 1.4801791058552415e-15 0.0000000000000000e+00  1.2097072862515578e-03 -6.3961966692803624e-17 0.0000000000000000e+00  -2.4194145724986782e-03 1.4202571913340269e-16 0.0000000000000000e+00  -1.9575263359327029e-02 1.8031689123198185e-15 0.0000000000000000e+00  2.4194145725063387e-03 -1.8513013208402863e-16 0.0000000000000000e+00  -1.0997338965916438e-02 -1.2461085412733518e-16 0.0000000000000000e+00  -2.1994677931833566e-02 1.4348038616094921e-15 0.0000000000000000e+00  -1.0997338965917590e-02 4.0088321127793157e-16 0.0000000000000000e+00  -5.4973391458075528e-16 1.0417235634939859e-17 0.0000000000000000e+00  -1.0997338965911738e-02 1.9020485348930345e-15 0.0000000000000000e+00  -1.0997338965910665e-02 1.3117413332549322e-15 0.0000000000000000e+00  -1.0997338965909603e-02 6.8676250336654722e-16 0.0000000000000000e+00  -1.0997338965917928e-02 1.2902500337342555e-15 0.0000000000000000e+00  -1.0997338965914096e-02 2.2993562205345107e-15 0.0000000000000000e+00  -1.9575263359329981e-02 5.4905430037187449e-16 0.0000000000000000e+00  -1.0997338965905448e-02 2.1815579367504033e-15 0.0000000000000000e+00  2.4194145725041595e-03 -1.5889383274716322e-16 0.0000000000000000e+00  -2.4194145724999723e-03 1.7159792928311057e-16 0.0000000000000000e+00  2.4194145725069437e-03 -2.0974533408228994e-16 0.0000000000000000e+00  -2.4194145724989631e-03 1.5800902230978701e-16 0.0000000000000000e+00  -1.0997338965909261e-02 2.3958795448682211e-15 0.0000000000000000e+00  -1.8145609293743808e-03 1.1129183612863434e-16 0.0000000000000000e+00  1.8145609293790902e-03 -1.8823376330357113e-16 0.0000000000000000e+00  -2.0180117002454794e-02 1.7517691697174322e-15 0.0000000000000000e+00  6.0485364312593307e-04 -3.9701035838760796e-17 0.0000000000000000e+00  -6.0485364312495426e-04 4.8522030977537213e-17 0.0000000000000000e+00  -2.1389824288707268e-02 1.3280792080781014e-15 0.0000000000000000e+00  -1.9575263359327816e-02 1.1970904379959811e-15 0.0000000000000000e+00  -2.1086961033287833e-16 9.6682636675276769e-18 0.0000000000000000e+00  -5.4986694829582084e-03 6.0693384566904850e-17 0.0000000000000000e+00  -5.4986694829601279e-03 1.9062292803747901e-16 0.0000000000000000e+00  -1.5264416957729532e-15 8.4574148545661980e-18 0.0000000000000000e+00  -2.1994677931834000e-02 1.1545194232083637e-15 0.0000000000000000e+00  -1.6496008448875794e-02 1.0632685971750568e-15 0.0000000000000000e+00  -1.6496008448874645e-02 6.4006247914682163e-16 0.0000000000000000e+00  -2.1994677931832941e-02 1.5665001754208175e-15 0.0000000000000000e+00  -1.3823175391605434e-02 1.9477204335618702e-15 0.0000000000000000e+00  -7.5652988303804396e-03 1.0076783458057521e-15 0.0000000000000000e+00  -6.7464842788391363e-03 1.5073633806666710e-15 0.0000000000000000e+00  -1.3746673707394276e-02 2.3154406007236039e-15 0.0000000000000000e+00  -8.6910700923819410e-03 1.5752898780693578e-15 0.0000000000000000e+00  -8.6910700923793563e-03 2.1717438738838973e-15 0.0000000000000000e+00  -1.6496008448876387e-02 1.8360703714976337e-15 0.0000000000000000e+00  -6.4151143967855484e-03 7.7003628924368795e-16 0.0000000000000000e+00  -5.4986694829599449e-03 1.0568059663816952e-15 0.0000000000000000e+00  -1.6152341606190525e-02 8.3927508513454368e-16 0.0000000000000000e+00  -1.5298640176938882e-02 2.1740605871976099e-15 0.0000000000000000e+00  -6.6960377548835309e-03 1.6777527354678117e-15 0.0000000000000000e+00  -1.5124513387447374e-02 1.8522815857424431e-15 0.0000000000000000e+00  -1.4579966054510226e-02 1.7313129969892301e-15 0.0000000000000000e+00  -1.5286301162619040e-02 1.3411542097295859e-15 0.0000000000000000e+00  -6.8701645443739988e-03 1.2857930761979736e-15 0.0000000000000000e+00  -1.6583607075372417e-02 2.7555229170029235e-15 0.0000000000000000e+00  -1.0310005280549744e-02 1.8266596110355015e-15 0.0000000000000000e+00  -9.0728046468709620e-04 6.1904129258096226e-17 0.0000000000000000e+00  9.0728046468904582e-04 -3.1444058654705617e-17 0.0000000000000000e+00  -5.9429483383640026e-03 1.2451687394247594e-15 0.0000000000000000e+00  -1.5121341078127171e-03 9.5349540909943149e-18 0.0000000000000000e+00  1.5121341078140461e-03 -4.1531194637234160e-17 0.0000000000000000e+00  -6.2547365368598251e-03 1.6532893757396539e-15 0.0000000000000000e+00  -1.1398283615716299e-02 1.3868668418938288e-15 0.0000000000000000e+00  -2.1692251110269907e-02 1.4690664466740282e-15 0.0000000000000000e+00  -2.4194145724972605e-03 1.7793782172442562e-16 0.0000000000000000e+00  2.4194145725045311e-03 -2.1106202351399853e-16 0.0000000000000000e+00  -2.4194145725006310e-03 4.7829719754803887e-17 0.0000000000000000e+00  2.4194145725065018e-03 -1.4097945551009777e-16 0.0000000000000000e+00  -2.4194145724998530e-03 8.4411418966762168e-17 0.0000000000000000e+00  2.4194145725060208e-03 -1.3528857560247216e-16 0.0000000000000000e+00  -2.4194145725004493e-03 2.0739890470029587e-16 0.0000000000000000e+00  2.4194145725047237e-03 -1.4463113164745705e-16 0.0000000000000000e+00  -2.0482543824017607e-02 1.7193242549584861e-15 0.0000000000000000e+00  -1.5719264251776572e-02 1.1874551104082350e-15 0.0000000000000000e+00  -1.4972079016331101e-02 2.2212402008586366e-15 0.0000000000000000e+00  -1.4679332646615674e-02 1.7774086783327019e-15 0.0000000000000000e+00  -2.1169877509375039e-03 7.5023581069856197e-17 0.0000000000000000e+00  2.1169877509406025e-03 -1.3362918018831543e-16 0.0000000000000000e+00  -3.0242682156242801e-04 2.9503434352305800e-17 0.0000000000000000e+00  3.0242682156270823e-04 -1.9547384435602693e-17 0.0000000000000000e+00  -6.5721624283985140e-03 9.3435629946960359e-16 0.0000000000000000e+00  -6.5721624283936898e-03 1.4496678526980896e-15 0.0000000000000000e+00  -6.7083767692053846e-03 4.5751635289480314e-16 0.0000000000000000e+00  -1.5294312162325182e-02 2.3173710979987847e-15 0.0000000000000000e+00  -6.7003657694979669e-03 1.3433707450544839e-15 0.0000000000000000e+00  -1.1006186371616614e-02 2.3569300433747069e-15 0.0000000000000000e+00  -1.5286301162619748e-02 9.4780468329034385e-16 0.0000000000000000e+00  -6.4744215385634605e-03 1.5583075244695892e-15 0.0000000000000000e+00  -1.5205407275033703e-02 2.5730912073908563e-15 0.0000000000000000e+00  -9.7696348422254536e-03 1.5494961933360124e-15 0.0000000000000000e+00  -1.4624933416480818e-02 1.3101258818615382e-15 0.0000000000000000e+00  -2.1087397467144157e-02 1.5210362799752389e-15 0.0000000000000000e+00  -1.9877690180892228e-02 1.4617746892284694e-15 0.0000000000000000e+00  -1.0997338965910455e-02 2.6640837762020380e-15 0.0000000000000000e+00  -1.9575263359328247e-02 7.7061989094050749e-16 0.0000000000000000e+00  -1.9575263359327875e-02 1.6369440891789252e-15 0.0000000000000000e+00  -1.9575263359330120e-02 1.2130399684557347e-15 0.0000000000000000e+00  -4.1240021122196796e-03 3.6827186745405139e-16 0.0000000000000000e+00  -1.9575263359326529e-02 5.7813029286230916e-16 0.0000000000000000e+00  -1.7088549007812589e-02 2.6275089840961099e-15 0.0000000000000000e+00  -1.7562642489725520e-02 1.7949985342484302e-15 0.0000000000000000e+00  -1.3746673707395806e-02 1.3138325654392165e-15 0.0000000000000000e+00  -4.0161850635346405e-03 6.5533227745527171e-16 0.0000000000000000e+00  -8.2480042244376835e-03 4.3697932670284203e-16 0.0000000000000000e+00  -3.5512240410777241e-03 3.3730291568747679e-16 0.0000000000000000e+00  -2.1994677931832990e-02 1.2911013331774897e-15 0.0000000000000000e+00  -1.9245343190353759e-02 8.8392011016573233e-16 0.0000000000000000e+00  -1.8064681295323657e-02 1.0210606842906653e-15 0.0000000000000000e+00  -1.8568103046366483e-02 2.1245665605737428e-15 0.0000000000000000e+00  -8.2480042244373018e-03 4.2573065678764534e-16 0.0000000000000000e+00  -1.0034467887222094e-02 1.8555123400318885e-15 0.0000000000000000e+00  -4.3860781798270264e-03 1.2306493523267319e-15 0.0000000000000000e+00  -1.7225450504443289e-02 1.6722992678696745e-15 0.0000000000000000e+00  -8.2480042244389203e-03 4.9405308551209788e-16 0.0000000000000000e+00  -1.0170684714411661e-02 2.1110490128490998e-15 0.0000000000000000e+00  -1.1402320531101904e-02 2.3317833569902941e-15 0.0000000000000000e+00  -7.6087140156247332e-03 1.3233205071462064e-15 0.0000000000000000e+00  -1.3247193967501368e-02 2.4816601036993898e-15 0.0000000000000000e+00  -1.2333913432700253e-02 1.0540669757417165e-15 0.0000000000000000e+00  -4.4950582868281581e-03 8.5383205424470852e-16 0.0000000000000000e+00  -3.2660276205465650e-03 7.7375158893444299e-16 0.0000000000000000e+00  -1.8330446325369773e-02 1.3919236464324392e-15 0.0000000000000000e+00  -1.3240719744556304e-02 1.3693582053182069e-15 0.0000000000000000e+00  -1.4228317667352022e-02 2.6862416212815575e-15 0.0000000000000000e+00  -2.7493347414790942e-03 1.9861490617169177e-16 0.0000000000000000e+00  -5.4366192856956834e-03 1.1674985185981325e-15 0.0000000000000000e+00  -5.8351176278906951e-03 9.9769572655896743e-16 0.0000000000000000e+00  -5.5410644204292071e-03 8.2771635343851722e-16 0.0000000000000000e+00  -1.1202040893647416e-02 1.4980614506294365e-15 0.0000000000000000e+00  -9.7248468363440692e-03 1.5984819018859664e-15 0.0000000000000000e+00  -9.7248468363403638e-03 1.7308319362046305e-15 0.0000000000000000e+00  -6.8614261488166199e-03 1.0775798955962099e-15 0.0000000000000000e+00  -1.7596297234279829e-02 2.9692641698540924e-15 0.0000000000000000e+00  -5.5878178364891038e-03 9.7449219174406022e-16 0.0000000000000000e+00  3.3401840410950701e-15 -2.6408255530131159e-17 0.0000000000000000e+00  4.8005055598611995e-15 2.3125737749925232e-17 0.0000000000000000e+00  4.5990425268856073e-15 9.8220705006334145e-18 0.0000000000000000e+00  5.3150556907821185e-15 -2.3860148149100353e-17 0.0000000000000000e+00  5.4371696666174875e-15 -1.5677898698085393e-17 0.0000000000000000e+00  6.1706424494632322e-15 -1.0730261431900712e-18 0.0000000000000000e+00  4.0308321452170587e-15 -3.6072914302246909e-18 0.0000000000000000e+00  4.7691090481012071e-15 2.7415935751516001e-18 0.0000000000000000e+00  -1.0699645374848864e-02 2.2281416860194426e-15 0.0000000000000000e+00  -8.6835645811917609e-03 1.9624570890920184e-15 0.0000000000000000e+00  -1.2673709898417604e-02 2.1429234451997450e-15 0.0000000000000000e+00  -3.7440858094554491e-03 9.3707264937837837e-16 0.0000000000000000e+00  -7.0795369593102441e-03 8.8565811809195484e-16 0.0000000000000000e+00  -3.2306742218527508e-03 4.6553663412102237e-16 0.0000000000000000e+00  -2.1994677931833493e-02 1.1790548320467249e-15 0.0000000000000000e+00  -1.3746673707395544e-02 1.2265538862384646e-15 0.0000000000000000e+00  -1.3164851771974182e-02 1.4580812928132144e-15 0.0000000000000000e+00  -1.9182180963222273e-02 1.3355053874795968e-15 0.0000000000000000e+00  -8.4595640400169352e-03 8.3649559545684857e-16 0.0000000000000000e+00  -1.9054459526125656e-02 1.8637651799219611e-15 0.0000000000000000e+00  -2.6369297332774228e-03 2.9879792737083085e-16 0.0000000000000000e+00  -1.4079247294547360e-02 2.3926170477884331e-15 0.0000000000000000e+00  2.2891428226021731e-15 -5.7328108057254577e-18 0.0000000000000000e+00  -1.6900570785935799e-02 1.8915639817869589e-15 0.0000000000000000e+00  -4.1889863759490302e-03 9.0079857568108537e-16 0.0000000000000000e+00  -8.8511120632508242e-03 1.8664039528577403e-15 0.0000000000000000e+00  -1.3152413274276889e-02 2.4165255830852021e-15 0.0000000000000000e+00  -8.8511120632521808e-03 1.1095091045252439e-15 0.0000000000000000e+00  -1.3152413274276359e-02 2.5164322162760860e-15 0.0000000000000000e+00  -1.4096217907486986e-02 1.0716141762326708e-15 0.0000000000000000e+00  -1.7326831534500205e-02 2.0206212174834578e-15 0.0000000000000000e+00  -3.0792939554659476e-03 4.2151453665857911e-16 0.0000000000000000e+00  -1.3145118292173092e-02 1.9968709807090209e-15 0.0000000000000000e+00  -8.8495596396475067e-03 2.0035684085137200e-15 0.0000000000000000e+00  -1.7273652271959483e-02 1.8601902549152688e-15 0.0000000000000000e+00  -4.7210256598639658e-03 6.3994054726666431e-16 0.0000000000000000e+00  -9.0179461133415174e-03 1.6663100537676118e-15 0.0000000000000000e+00  -1.3059275941371242e-02 1.5186605027216033e-15 0.0000000000000000e+00  -1.7429223672129311e-02 2.0590391060728309e-15 0.0000000000000000e+00  -1.7430782260974324e-02 8.4110833303681904e-16 0.0000000000000000e+00  -1.7430782260974467e-02 1.5496612177207343e-15 0.0000000000000000e+00  -1.2714372450354077e-02 1.4867863745129933e-15 0.0000000000000000e+00  -1.6814608725718268e-02 1.7676525065319947e-15 0.0000000000000000e+00  -1.7595239787893745e-02 1.5002775140883068e-15 0.0000000000000000e+00  -4.3994381439309629e-03 7.1595663756123022e-16 0.0000000000000000e+00  -1.7398743425230425e-02 3.5670558440683531e-16 0.0000000000000000e+00  -8.3101320998842845e-03 1.9983284324792673e-15 0.0000000000000000e+00  -8.7483020678115822e-03 1.1301742427073990e-15 0.0000000000000000e+00  -9.6954393587314286e-16 1.3060813308017757e-17 0.0000000000000000e+00  -2.7493347414802973e-03 1.7014213999238088e-16 0.0000000000000000e+00  -8.5669809237702618e-03 1.2252889003822639e-15 0.0000000000000000e+00  -2.1541037699488456e-02 1.5682540457849277e-15 0.0000000000000000e+00  -2.1238610877925116e-02 1.0548831593945724e-15 0.0000000000000000e+00  1.9657743401589206e-03 -7.7427801115616691e-17 0.0000000000000000e+00  -1.9657743401565848e-03 1.6662351429364125e-17 0.0000000000000000e+00  -6.9565571926403710e-03 1.4918457677974139e-15 0.0000000000000000e+00  -1.2758519380197911e-02 1.6447895599774083e-15 0.0000000000000000e+00  -1.1858529712512092e-02 7.5562674030662502e-16 0.0000000000000000e+00  -1.1000512973701549e-02 9.7938217533714293e-16 0.0000000000000000e+00  -1.8399422161386430e-16 5.4477217974973587e-19 0.0000000000000000e+00  -4.2599163451991877e-16 1.9403235323210283e-17 0.0000000000000000e+00  -2.1994677931833559e-02 8.9641370669742004e-16 0.0000000000000000e+00  -1.6923759461716036e-16 2.7371770639358082e-17 0.0000000000000000e+00  -1.9245343190355240e-02 1.2991744179096191e-15 0.0000000000000000e+00  -2.1994677931833396e-02 8.6505741693744433e-16 0.0000000000000000e+00  -1.3746673707396698e-02 9.2370392253251042e-16 0.0000000000000000e+00  -3.2212404160263429e-03 5.7112950599336103e-16 0.0000000000000000e+00  -1.3632435041126550e-02 1.5201287502033791e-15 0.0000000000000000e+00  -9.0027313645023831e-03 7.8084726413967289e-16 0.0000000000000000e+00  -1.6699380566319647e-02 1.6168548542403973e-15 0.0000000000000000e+00  -1.5519738468299418e-02 1.3618628352912006e-15 0.0000000000000000e+00  -1.6633475185945427e-03 1.5275282803909458e-16 0.0000000000000000e+00  1.6633475185967880e-03 -1.0101681151008704e-16 0.0000000000000000e+00  -5.1635339672338673e-03 7.9729086505494705e-16 0.0000000000000000e+00  -1.8518345320569490e-02 2.2910134418582138e-15 0.0000000000000000e+00  -1.0779334060152952e-02 1.1792666516966912e-15 0.0000000000000000e+00  -1.1242923203797182e-02 2.0827731494256757e-15 0.0000000000000000e+00  -9.1940818116602527e-03 2.2126151824795793e-15 0.0000000000000000e+00  -1.8143552420849730e-02 7.6057636050968874e-16 0.0000000000000000e+00  -3.4864563994097572e-03 7.5095034923415366e-16 0.0000000000000000e+00  -1.4884063363846399e-02 1.6813474238261902e-15 0.0000000000000000e+00  -4.0902691594492053e-03 9.1366254488643467e-16 0.0000000000000000e+00  -8.4545680660508705e-03 1.8288927248567384e-15 0.0000000000000000e+00  -6.1775035760373758e-03 1.5052089527099970e-15 0.0000000000000000e+00  -4.0346487331165051e-03 1.0775734854238899e-15 0.0000000000000000e+00  -1.6860640130064230e-02 6.4439660365884101e-16 0.0000000000000000e+00  -1.8895550769044280e-02 2.2111541819316526e-15 0.0000000000000000e+00  -1.3678486721995049e-02 2.0212282941774329e-15 0.0000000000000000e+00  -1.2178951526549986e-02 1.4009635076030595e-15 0.0000000000000000e+00  -1.4802278949084167e-02 9.3895361763108516e-16 0.0000000000000000e+00  -1.5128734304627238e-02 2.4021115862394508e-15 0.0000000000000000e+00  1.3609206970336364e-03 -6.2353018815446468e-17 0.0000000000000000e+00  -1.3609206970308645e-03 7.7693339711023649e-17 0.0000000000000000e+00  -8.4362445128493540e-03 1.3938181790234764e-15 0.0000000000000000e+00  -1.8878641987253648e-02 2.3190274145017919e-15 0.0000000000000000e+00  -8.4831999899292864e-03 1.8326581028737308e-15 0.0000000000000000e+00  -1.3474084864234483e-02 1.7811186051176695e-15 0.0000000000000000e+00  5.7717745835380414e-15 -1.7406140240858735e-17 0.0000000000000000e+00  -1.7170112946050250e-02 2.1703145989306146e-15 0.0000000000000000e+00  -2.0936184056362918e-02 1.7498199673353810e-15 0.0000000000000000e+00  -4.5638956708541041e-03 3.1197167785241514e-16 0.0000000000000000e+00  -1.9676333711083783e-02 9.3005340474206928e-16 0.0000000000000000e+00  -1.2743457866451010e-02 2.6728696867052866e-15 0.0000000000000000e+00  -1.2794953685111243e-02 1.7688202479029379e-15 0.0000000000000000e+00  -6.3316510025251656e-03 7.0689643887526062e-16 0.0000000000000000e+00  -6.0059872031126534e-03 6.9563488373667548e-16 0.0000000000000000e+00  -1.8867390098791240e-02 2.3607290149663659e-15 0.0000000000000000e+00  -1.1949500559059420e-02 2.2163240869842243e-15 0.0000000000000000e+00  -2.4194145724980628e-03 1.2015729906873245e-16 0.0000000000000000e+00  -5.0655248163843578e-03 9.5823044838667208e-16 0.0000000000000000e+00  -2.4194145724980155e-03 2.0273906692563362e-16 0.0000000000000000e+00  -4.9600386958664321e-03 9.6017914001307232e-16 0.0000000000000000e+00  -1.5505131211615647e-02 2.0142980973492372e-15 0.0000000000000000e+00  -2.4194145724984392e-03 1.6198815732686232e-16 0.0000000000000000e+00  -7.6626128190555552e-03 1.5458504318619922e-15 0.0000000000000000e+00  -7.6626128190584435e-03 7.2646585822759521e-16 0.0000000000000000e+00  -2.4194145724956316e-03 1.3169140526145170e-16 0.0000000000000000e+00  -4.5099664124567751e-03 9.4061226728534237e-16 0.0000000000000000e+00  -4.5551119900521398e-03 1.9761808520409226e-16 0.0000000000000000e+00  -1.0584938754688851e-03 5.8328325450401585e-17 0.0000000000000000e+00  1.0584938754702512e-03 -8.3197636068322901e-17 0.0000000000000000e+00  -1.5904471195124704e-02 2.0873080348005712e-15 0.0000000000000000e+00  -6.1521119469122544e-03 1.3352823080697217e-15 0.0000000000000000e+00  -1.7683051413223672e-02 1.7867468072052428e-15 0.0000000000000000e+00  -1.0858972203570813e-02 2.4313909652686100e-15 0.0000000000000000e+00  -8.3709500479136265e-03 1.0898302110562798e-15 0.0000000000000000e+00  1.9279573266665842e-15 7.4671554023120823e-18 0.0000000000000000e+00  -1.2553197717702445e-02 2.3648956624475832e-15 0.0000000000000000e+00  -1.5121341078136286e-02 6.6631531762797444e-16 0.0000000000000000e+00  -6.4869680618951158e-03 1.1298264165223238e-15 0.0000000000000000e+00  -1.9575263359327428e-02 1.5230404688260404e-15 0.0000000000000000e+00  -1.6150572402401094e-02 6.1788321392574579e-16 0.0000000000000000e+00  -4.6765687238850290e-03 9.5667293588251160e-16 0.0000000000000000e+00  2.4194145725075261e-03 -1.4790556445067077e-16 0.0000000000000000e+00  -1.4116566554167162e-02 1.3626493772829174e-15 0.0000000000000000e+00  -4.5484389884648466e-03 1.1219659352345795e-15 0.0000000000000000e+00  -8.0339160315845929e-03 1.8792869739426207e-15 0.0000000000000000e+00  -6.690080346