<?xml version="1.0"?>
<VTKFile type="UnstructuredGrid"  version="0.1"  >
<UnstructuredGrid>
<Piece  NumberOfPoints="6614" NumberOfCells="12519">
<Points>
<DataArray  type="Float64"  NumberOfComponents="3"  format="ascii">0 0 0  6.5 -0.125 0  12 -0.125 0  12 0.125 0  6.5 0.125 0  0 1 0  12 0.875 0  6.5 0.875 0  -2.5 1 0  -2.5 0 0  3.25 0.0625 0  3.25 0.9375 0  3.25 -0.0625 0  9.25 0.125 0  9.25 0.875 0  9.25 -0.125 0  1.625 0.03125 0  1.625 0.96875 0  1.625 -0.03125 0  4.875 0.90625 0  4.875 0.09375 0  4.875 -0.09375 0  7.875 0.125 0  7.875 0.875 0  7.875 -0.125 0  10.625 0.875 0  10.625 0.125 0  10.625 -0.125 0  -1.25 1 0  -1.25 0 0  0.8125 0.015625 0  0.8125 0.984375 0  0.8125 -0.015625 0  2.4375 0.953125 0  2.4375 0.046875 0  2.4375 -0.046875 0  4.0625 0.078125 0  4.0625 0.921875 0  4.0625 -0.078125 0  5.6875 0.109375 0  5.6875 0.890625 0  5.6875 -0.109375 0  -1.875 0 0  -1.875 1 0  -0.625 0 0  -0.625 1 0  8.5625 0.875 0  8.5625 0.125 0  8.5625 -0.125 0  7.1875 0.125 0  7.1875 0.875 0  7.1875 -0.125 0  11.3125 0.125 0  11.3125 0.875 0  11.3125 -0.125 0  9.9375 0.125 0  9.9375 0.875 0  9.9375 -0.125 0  0 0.5 0  1.209585336538462 0.5 0  2.022385817307693 0.5 0  2.835186298076923 0.5 0  3.647986778846154 0.5 0  -0.9375 0.5 0  -1.5625 0.5 0  -2.5 0.5 0  4.460787259615385 0.5 0  5.28125 0.1015625 0  5.28125 0.8984375 0  5.28125 -0.1015625 0  6.09375 0.8828125 0  6.09375 0.1171875 0  6.09375 -0.1171875 0  8.90625 0.5 0  7.53125 0.5 0  8.21875 0.5 0  6.84375 0.5 0  10.28125 0.5 0  10.96875 0.5 0  12 0.5 0  9.59375 0.5 0  0.5506310096153846 0.5 0  -0.46875 0.4453125 0  -2.03125 0.4453125 0  5.070387620192307 0.5 0  5.883188100961538 0.5 0  4.46875 0.0859375 0  4.46875 -0.0859375 0  3.65625 -0.0703125 0  3.65625 0.0703125 0  2.84375 0.0546875 0  2.84375 -0.0546875 0  2.03125 -0.0390625 0  2.03125 0.0390625 0  1.21875 0.0234375 0  1.21875 -0.0234375 0  4.054387019230769 0.4847310450995098 0  3.241586538461538 0.4699247074852732 0  1.615985576923077 0.4417102219320143 0  5.476787860576923 0.53993893765092 0  2.428786057692307 0.4556005042418 0  0.40625 0.0078125 0  0.40625 -0.0078125 0  0.40625 0.9921875 0  4.46875 0.9140625 0  3.65625 0.9296875 0  2.84375 0.9453125 0  2.03125 0.9609375 0  1.21875 0.9765625 0  11.65625 0.875 0  11.484375 0.5 0  6.467329545454546 0.5 0  9.59375 -0.125 0  9.59375 0.125 0  10.28125 -0.125 0  10.28125 0.125 0  10.96875 -0.125 0  10.96875 0.125 0  6.84375 -0.125 0  6.84375 0.125 0  7.53125 -0.125 0  7.53125 0.125 0  8.21875 -0.125 0  8.21875 0.125 0  8.90625 -0.125 0  8.90625 0.125 0  11.65625 -0.125 0  11.65625 0.125 0  -0.3125 1 0  -2.1875 1 0  9.25 0.4700520833333333 0  9.59375 0.875 0  9.9375 0.5299479166666666 0  10.625 0.4700520833333333 0  10.96875 0.875 0  10.28125 0.875 0  6.84375 0.875 0  7.1875 0.5299479166666666 0  7.875 0.4700520833333333 0  8.21875 0.875 0  8.5625 0.5299479166666666 0  7.53125 0.875 0  8.90625 0.875 0  0.8801081730769231 0.63484883039911 0  -2.1875 0 0  -0.3125 0 0  0 0.25 0  0.2753155048076923 0.6865079365079365 0  1.011042668269231 0.2578125 0  1.446827777824054 0.7082004557951647 0  -1.25 0.65234375 0  -1.284375 0.326171875 0  -1.5625 0 0  -1.5625 1 0  -0.9375 0 0  -0.9375 1 0  1.823692908653846 0.7343749999999999 0  2.250687166802934 0.7075583934794667 0  4.765587439903847 0.3964836665810265 0  0.2753155048076923 0.375 0  3.054829110674799 0.707148526758953 0  2.636343149038462 0.7265625000000001 0  3.859250973615127 0.7069998487229827 0  3.448993389423077 0.7187500000000001 0  -0.78125 0.75 0  -0.78125 0.25 0  0 0.75 0  -2.5 0.25 0  -2.240776699029126 0.6856416868932038 0  -1.775 0.28515625 0  -1.71875 0.75 0  6.175258823208043 0.5886645441611957 0  4.261643629807693 0.7109374999999998 0  4.667893629807693 0.7031250000000002 0  1.824167367109634 0.2409531602990362 0  2.636686615214766 0.2555772588321514 0  1.38325552388875 0.2649704395311445 0  -0.46875 0.7446632922535211 0  3.449201796915416 0.2704128103983777 0  2.203202991433102 0.2729232708226779 0  4.261712450328808 0.2854838329019752 0  3.023283383806745 0.2808786583609286 0  3.843540099517909 0.288837436732593 0  0.6331235396611878 0.7683768130429148 0  0.6054339511832376 0.2166532884716425 0  6.256771799991964 0.3317884692185022 0  -0.2486470253814554 0.5949878961267605 0  -1.984670937186905 0.7576275392581842 0  11.2265625 0.3912760416666667 0  11.7421875 0.3912760416666667 0  -1.036405127827206 0.2643561701079966 0  10.78053977272727 0.6725260416666666 0  8.734375 0.3125 0  8.390625 0.3125 0  7.359375 0.3125 0  7.015625 0.3125 0  10.109375 0.3125 0  9.765625 0.3125 0  6.671875 0.3125 0  6.655539772727273 0.6725260416666669 0  11.78555345556989 0.6484760842723984 0  9.405539772727273 0.6725260416666666 0  9.094460227272727 0.6725260416666666 0  10.46946022727273 0.6725260416666666 0  11.140625 0.6875 0  8.030539772727273 0.6725260416666666 0  7.719460227272728 0.6725260416666666 0  -2.277018229166667 0.375 0  -0.2686215753424658 0.2654644691780822 0  0.7924173055676504 0.3931430043056919 0  -2.5 0.75 0  -1.525008560462654 0.2496950333675564 0  7.703125 0.2975260416666667 0  8.046875 0.2975260416666666 0  10.453125 0.2975260416666667 0  10.81190567787247 0.3125 0  9.078125 0.2975260416666667 0  9.421875 0.2975260416666666 0  10.12440567787247 0.6875 0  9.765625 0.7024739583333333 0  7.374405677872475 0.6875 0  7.015625 0.7024739583333333 0  8.749405677872474 0.6875 0  8.390625 0.7024739583333333 0  1.115551444307063 0.7401777158454262 0  5.28922999544003 0.360801083570939 0  5.078125 0.09765625 0  5.078125 -0.09765625 0  5.664767392260801 0.3650917682044265 0  -1.479229041916168 0.7258724738023952 0  -1.029665898617512 0.7685681883640553 0  0.203125 0.00390625 0  0.203125 -0.00390625 0  6.296875 0.12109375 0  6.296875 -0.12109375 0  -2.00322265625 0.205078125 0  -0.6971783980582524 0.5236271237864077 0  -0.546875 0.22265625 0  -1.801855111236272 0.5242311804773303 0  5.484375 0.10546875 0  5.890625 -0.11328125 0  5.890625 0.11328125 0  4.903633313301282 0.6699100680171115 0  5.260369462255295 0.6544725809557483 0  4.972693810096154 0.296875 0  4.671875 0.08984375 0  4.671875 -0.08984375 0  5.078125 0.90234375 0  4.265625 -0.08203125 0  4.265625 0.08203125 0  6.03259461594712 0.3328645427790781 0  5.890625 0.88671875 0  5.692656615207549 0.6488796598294736 0  6.296875 0.87890625 0  3.859375 0.07421875 0  3.859375 -0.07421875 0  4.561082497482947 0.2948209397629855 0  2.036725213111611 0.7135654082038703 0  3.453125 0.06640625 0  3.453125 -0.06640625 0  11.828125 0.125 0  11.828125 -0.125 0  11.484375 0.125 0  11.484375 -0.125 0  9.078125 0.125 0  9.078125 -0.125 0  8.734375 0.125 0  8.734375 -0.125 0  8.390625 0.125 0  8.390625 -0.125 0  8.046875 0.125 0  8.046875 -0.125 0  7.703125 0.125 0  7.703125 -0.125 0  7.359375 0.125 0  7.359375 -0.125 0  7.015625 0.125 0  7.015625 -0.125 0  6.671875 0.125 0  6.671875 -0.125 0  11.140625 0.125 0  11.140625 -0.125 0  10.796875 0.125 0  10.796875 -0.125 0  10.453125 0.125 0  10.453125 -0.125 0  10.109375 0.125 0  10.109375 -0.125 0  9.765625 0.125 0  9.765625 -0.125 0  9.421875 0.125 0  9.421875 -0.125 0  3.046875 0.05859375 0  3.046875 -0.05859375 0  2.846431093850899 0.7350694856199397 0  2.640625 -0.05078125 0  2.640625 0.05078125 0  0.203125 0.99609375 0  6.362699038303388 0.6807243972366781 0  2.234375 0.04296875 0  2.234375 -0.04296875 0  11.581701212888 0.6822801732596659 0  11.35203598484848 0.6662326388888888 0  1.828125 0.03515625 0  1.828125 -0.03515625 0  5.984553033425814 0.6914815580202875 0  1.822525515412832 0.4475696738977717 0  1.41733060903937 0.5025442175645189 0  1.588893519464248 0.2357861358511414 0  3.654445727495178 0.7241715610932831 0  -0.2708370651139332 0.7990289667308481 0  1.421875 0.02734375 0  1.421875 -0.02734375 0  5.484375 0.89453125 0  2.633855454650776 0.460690271159621 0  2.40795634504651 0.2507007772874862 0  2.225403489025307 0.476130253335854 0  1.015625 -0.01953125 0  1.015625 0.01953125 0  3.227321013248274 0.265830895248878 0  3.445567521085816 0.4744107463092357 0  3.038321171612397 0.4840806912614364 0  0.609375 0.01171875 0  0.609375 -0.01171875 0  4.257720382725849 0.4888191036475296 0  4.047058936483319 0.2812008669921838 0  3.851174586896061 0.4920378211671812 0  0.609375 0.98828125 0  4.464694218296445 0.7031618514150944 0  4.671875 0.91015625 0  4.265625 0.91796875 0  3.453125 0.93359375 0  3.859375 0.92578125 0  2.640625 0.94921875 0  3.046875 0.94140625 0  2.234375 0.95703125 0  1.828125 0.96484375 0  1.421875 0.97265625 0  1.015625 0.98046875 0  5.484375 -0.10546875 0  4.060661963989729 0.6870321141431521 0  -2.34375 0 0  -2.34375 1 0  1.003521337202078 0.4664537109579014 0  3.646922073215719 0.2678295141073984 0  3.253141618048695 0.6711470624742265 0  0.3013894287350291 0.1773590807784885 0  -1.124347644480009 0.4398459561477482 0  2.831246172847781 0.248957659490205 0  2.446473427278441 0.6570274073729461 0  -2.198800970885971 0.1954869700666445 0  2.01591648071966 0.2304840455985115 0  0.827600060761903 0.2057214409193794 0  1.640609275971101 0.6442729681322822 0  -0.15625 0 0  6.483664772727272 0.3124999999999999 0  5.477125710212377 0.3518294601818938 0  11.41161533959385 0.3125 0  12 0.3125 0  11.04150966040615 0.3125 0  12 0.6875 0  1.198054295914707 0.2143210783083181 0  -1.40625 0 0  0.9109798103993655 0.8221220157670066 0  5.845812869360681 0.3162425406240469 0  0.4667569911039429 0.6726473502422988 0  0.4593425712678239 0.3353704711440587 0  8.211153274166278 0.6806358075271245 0  9.586153274166278 0.6806358075271245 0  6.835007346992159 0.6944141097550816 0  6.663707386363637 0.4925130208333334 0  10.96058238636364 0.680013020833333 0  -1.40625 1 0  -1.320649221029402 0.826171875 0  5.082724050007036 0.6788909168133963 0  -0.1275597151206816 0.375 0  0.7018834652202378 0.6003751687871122 0  -1.71875 0 0  5.523196914803937 0.7163232589905226 0  0.3602612407862962 0.5307539682539683 0  0.1786479052710517 0.5327459553507268 0  1.289006631999016 0.8051714473419221 0  -1.328125 0.156663781811377
[...]
<PointData  Vectors="displacement"> 
<DataArray  type="Float64"  Name="displacement"  NumberOfComponents="3" format="ascii">0.0000000000000000e+00 0.0000000000000000e+00 0.0000000000000000e+00  -4.4752126665556551e-02 -3.1581238001268547e-01 0.0000000000000000e+00  -4.8454839250615944e-02 -5.1468574386432420e-01 0.0000000000000000e+00  -2.3570000408011963e-03 -5.1552730989164497e-01 0.0000000000000000e+00  1.2132110350681360e-03 -3.1659005861894407e-01 0.0000000000000000e+00  0.0000000000000000e+00 0.0000000000000000e+00 0.0000000000000000e+00  -1.3965384642290185e-02 -5.1262801459098661e-01 0.0000000000000000e+00  -1.0208155055280532e-02 -3.1370983441104028e-01 0.0000000000000000e+00  2.7919885372451325e-02 -3.6867700429674766e-01 0.0000000000000000e+00  2.7919885372451325e-02 -3.6867700429674766e-01 0.0000000000000000e+00  -9.0056626248645173e-04 -1.7285455597123342e-01 0.0000000000000000e+00  -4.4788605835025521e-03 -1.6874991258891905e-01 0.0000000000000000e+00  -2.5337995352753193e-02 -1.7237778414722352e-01 0.0000000000000000e+00  -5.5853868098447034e-04 -4.1608742896464751e-01 0.0000000000000000e+00  -1.2166947299428767e-02 -4.1318814922435781e-01 0.0000000000000000e+00  -4.6656396024825172e-02 -4.1524585673369585e-01 0.0000000000000000e+00  -6.2371648402394502e-04 -8.9419322372475352e-02 0.0000000000000000e+00  -1.5209659050582484e-03 -8.4760327492815285e-02 0.0000000000000000e+00  -1.3035925268664072e-02 -8.9173385908042746e-02 0.0000000000000000e+00  -7.4828960791000756e-03 -2.4599963972310201e-01 0.0000000000000000e+00  -1.9139018426230574e-04 -2.4947590207756257e-01 0.0000000000000000e+00  -3.5938220019030707e-02 -2.4882803937818260e-01 0.0000000000000000e+00  3.4079389265578923e-04 -3.6636879398011618e-01 0.0000000000000000e+00  -1.1267124802183965e-02 -3.6346631277324737e-01 0.0000000000000000e+00  -4.5756437629565265e-02 -3.6552754490748912e-01 0.0000000000000000e+00  -1.3066155159863924e-02 -4.6290807538026302e-01 0.0000000000000000e+00  -1.4577706129652430e-03 -4.6580737044718412e-01 0.0000000000000000e+00  -4.7555609806045840e-02 -4.6496580441531793e-01 0.0000000000000000e+00  1.4314148277142150e-02 -1.8432452523201454e-01 0.0000000000000000e+00  1.4314148277142150e-02 -1.8432452523201454e-01 0.0000000000000000e+00  -1.9211828827925098e-05 -4.6201387840493463e-02 0.0000000000000000e+00  -1.7893973333246043e-04 -4.1169069321406140e-02 0.0000000000000000e+00  -6.2485104369393385e-03 -4.6078679991345135e-02 0.0000000000000000e+00  -2.9744424548506163e-03 -1.2740373871460875e-01 0.0000000000000000e+00  -9.0196679434690502e-04 -1.3179932195550220e-01 0.0000000000000000e+00  -1.9397737364514334e-02 -1.3143238719536496e-01 0.0000000000000000e+00  -6.5306084745983929e-04 -2.1219867747789387e-01 0.0000000000000000e+00  -5.9919134419453282e-03 -2.0839855365452103e-01 0.0000000000000000e+00  -3.0851427803101395e-02 -2.1162901443247037e-01 0.0000000000000000e+00  4.5279996296475892e-04 -2.8435154492270603e-01 0.0000000000000000e+00  -8.9202405307152437e-03 -2.8120813167405140e-01 0.0000000000000000e+00  -4.0607514180385974e-02 -2.8365332685331862e-01 0.0000000000000000e+00  2.1116857022183116e-02 -2.7650080453310821e-01 0.0000000000000000e+00  2.1116857022183116e-02 -2.7650080453310821e-01 0.0000000000000000e+00  7.5212291338467799e-03 -9.2152842279345379e-02 0.0000000000000000e+00  7.5212291338467799e-03 -9.2152842279345379e-02 0.0000000000000000e+00  -1.1717180535681267e-02 -3.8832820391423994e-01 0.0000000000000000e+00  -1.0895372781407694e-04 -3.9122737757891207e-01 0.0000000000000000e+00  -4.6206695361597175e-02 -3.9038583424945550e-01 0.0000000000000000e+00  7.9210829593720803e-04 -3.4149963323407190e-01 0.0000000000000000e+00  -1.0838250867618318e-02 -3.3862812054301378e-01 0.0000000000000000e+00  -4.5324252179383524e-02 -3.4065148045009619e-01 0.0000000000000000e+00  -1.9073853139800888e-03 -4.9066734022851327e-01 0.0000000000000000e+00  -1.3515769939093102e-02 -4.8776804493150461e-01 0.0000000000000000e+00  -4.8005224541324075e-02 -4.8982577419633078e-01 0.0000000000000000e+00  -1.0081558991084153e-03 -4.4094740199445936e-01 0.0000000000000000e+00  -1.2616539085688983e-02 -4.3804810359636792e-01 0.0000000000000000e+00  -4.7105993845358414e-02 -4.4010583648448409e-01 0.0000000000000000e+00  9.6007001755644614e-04 4.0145911330638953e-05 0.0000000000000000e+00  -6.2385997135619778e-04 -6.5024314334624703e-02 0.0000000000000000e+00  -1.5495954612538608e-03 -1.0808561508489239e-01 0.0000000000000000e+00  -2.3730550671409983e-03 -1.5003951745408936e-01 0.0000000000000000e+00  -3.0776591855122739e-03 -1.9048177185616103e-01 0.0000000000000000e+00  1.0904831095534721e-02 -1.3823476487708092e-01 0.0000000000000000e+00  1.7715964593809769e-02 -2.3041297735927849e-01 0.0000000000000000e+00  2.7919836642947209e-02 -3.6867699285056493e-01 0.0000000000000000e+00  -3.6605391929766624e-03 -2.2903562613181649e-01 0.0000000000000000e+00  1.1118539662988260e-04 -2.6722875906819060e-01 0.0000000000000000e+00  -8.2075107436090956e-03 -2.6391983991131757e-01 0.0000000000000000e+00  -3.8320278343560041e-02 -2.6655753210743255e-01 0.0000000000000000e+00  -9.6189699976504933e-03 -2.9779534834745314e-01 0.0000000000000000e+00  8.2686976808622541e-04 -3.0082872867465776e-01 0.0000000000000000e+00  -4.2798745003477037e-02 -3.0011813225291467e-01 0.0000000000000000e+00  -6.1379241058177178e-03 -4.0220781504116543e-01 0.0000000000000000e+00  -5.2353733076794086e-03 -3.5248355955004979e-01 0.0000000000000000e+00  -5.6885739215492949e-03 -3.7734748694538633e-01 0.0000000000000000e+00  -4.8030538395350576e-03 -3.2759730604014931e-01 0.0000000000000000e+00  -7.0371558406601186e-03 -4.5192773801292058e-01 0.0000000000000000e+00  -7.4867702422983405e-03 -4.7678770776301094e-01 0.0000000000000000e+00  -8.1611923437107121e-03 -5.1407766224144191e-01 0.0000000000000000e+00  -6.5875384388881086e-03 -4.2706776594185591e-01 0.0000000000000000e+00  3.6558351806861015e-04 -2.9604086558906905e-02 0.0000000000000000e+00  5.8219705044494823e-03 -6.9082134096493261e-02 0.0000000000000000e+00  2.2817627907324837e-02 -2.9954484101157658e-01 0.0000000000000000e+00  -4.0170355500158727e-03 -2.5650526597919576e-01 0.0000000000000000e+00  -4.3779016822557302e-03 -2.9091848977029550e-01 0.0000000000000000e+00  -4.4713927087333552e-04 -2.3111897483964128e-01 0.0000000000000000e+00  -3.3449152916522229e-02 -2.3050654490539046e-01 0.0000000000000000e+00  -2.8147907089454988e-02 -1.9223693620056134e-01 0.0000000000000000e+00  -8.0439849468549017e-04 -1.9276194882730566e-01 0.0000000000000000e+00  -9.3407935059965530e-04 -1.5251538072583082e-01 0.0000000000000000e+00  -2.2420581922474443e-02 -1.5209435080761310e-01 0.0000000000000000e+00  -1.6270319094852579e-02 -1.1044168756366526e-01 0.0000000000000000e+00  -8.0044914067823822e-04 -1.1074922990877760e-01 0.0000000000000000e+00  -3.5760964997457020e-04 -6.7876321196566808e-02 0.0000000000000000e+00  -9.6857883376421667e-03 -6.7693601575994439e-02 0.0000000000000000e+00  -3.2866885104714215e-03 -2.1008407108237129e-01 0.0000000000000000e+00  -2.6177070906904759e-03 -1.7061537441853727e-01 0.0000000000000000e+00  -1.0415812133210923e-03 -8.6956921773253967e-02 0.0000000000000000e+00  -4.6604924308334041e-03 -2.7388484127752738e-01 0.0000000000000000e+00  -1.8745023792071020e-03 -1.2944143563731580e-01 0.0000000000000000e+00  1.6633266527431705e-04 -2.4226026505533283e-02 0.0000000000000000e+00  -2.9720721195420469e-03 -2.4155266554361756e-02 0.0000000000000000e+00  4.0900463027105771e-05 -1.9493560544951574e-02 0.0000000000000000e+00  -6.7431452880487470e-03 -2.2748066974317649e-01 0.0000000000000000e+00  -5.2360126206007296e-03 -1.8880624821997644e-01 0.0000000000000000e+00  -3.7217574995256769e-03 -1.4826395807287357e-01 0.0000000000000000e+00  -2.2400977125277130e-03 -1.0621931177614552e-01 0.0000000000000000e+00  -8.0759435799628455e-04 -6.3058622214318641e-02 0.0000000000000000e+00  -1.3740577282519036e-02 -5.0019802975487504e-01 0.0000000000000000e+00  -7.8239812954283110e-03 -4.9543268498935789e-01 0.0000000000000000e+00  -4.6252176807233042e-03 -3.1375443883865356e-01 0.0000000000000000e+00  -4.6881188807284875e-02 -4.2767585295582583e-01 0.0000000000000000e+00  -7.8334775799199230e-04 -4.2851741928456855e-01 0.0000000000000000e+00  -4.7330802004316309e-02 -4.5253581984420205e-01 0.0000000000000000e+00  -1.2329633140017110e-03 -4.5337738570748759e-01 0.0000000000000000e+00  -4.7780417211421324e-02 -4.7739578931764498e-01 0.0000000000000000e+00  -1.6825779521739822e-03 -4.7823735536313811e-01 0.0000000000000000e+00  -4.5094737642310118e-02 -3.2818552506728554e-01 0.0000000000000000e+00  1.0101802053030960e-03 -3.2903501190499823e-01 0.0000000000000000e+00  -4.5535525636970359e-02 -3.5309685223891651e-01 0.0000000000000000e+00  5.6638411888363575e-04 -3.5393948586546847e-01 0.0000000000000000e+00  -4.5981440214799427e-02 -3.7795628078089805e-01 0.0000000000000000e+00  1.1581698362496263e-04 -3.7879764160898372e-01 0.0000000000000000e+00  -4.6431605132145497e-02 -4.0281582710885322e-01 0.0000000000000000e+00  -3.3373469185726709e-04 -4.0365740719372917e-01 0.0000000000000000e+00  -4.8230031890083000e-02 -5.0225575903499298e-01 0.0000000000000000e+00  -2.1321926781985422e-03 -5.0309732506214400e-01 0.0000000000000000e+00  4.0146392974062563e-03 -4.6069485124465973e-02 0.0000000000000000e+00  2.4518426576458960e-02 -3.2258893202072936e-01 0.0000000000000000e+00  -5.8991938369368927e-03 -4.1475355380715567e-01 0.0000000000000000e+00  -1.2391735815601766e-02 -4.2561811821675410e-01 0.0000000000000000e+00  -7.2758776104494957e-03 -4.3938198165410658e-01 0.0000000000000000e+00  -6.7984337055922344e-03 -4.6447349342672412e-01 0.0000000000000000e+00  -1.3290962612165794e-02 -4.7533806015448021e-01 0.0000000000000000e+00  -1.2841347193336409e-02 -4.5047809013284262e-01 0.0000000000000000e+00  -1.0592582663018582e-02 -3.2622362459832716e-01 0.0000000000000000e+00  -5.4717389487446760e-03 -3.3993571741510531e-01 0.0000000000000000e+00  -4.9998106552338606e-03 -3.6503215027949037e-01 0.0000000000000000e+00  -1.1491813015256203e-02 -3.7589764764882394e-01 0.0000000000000000e+00  -6.3767284155323593e-03 -3.8966205272429433e-01 0.0000000000000000e+00  -1.1048382593431378e-02 -3.5103859193351455e-01 0.0000000000000000e+00  -1.1942150591375166e-02 -4.0075821356838703e-01 0.0000000000000000e+00  -2.1599085436517095e-04 -4.6632337752403143e-02 0.0000000000000000e+00  2.4518426576458960e-02 -3.2258893202072936e-01 0.0000000000000000e+00  4.0146392974062563e-03 -4.6069485124465973e-02 0.0000000000000000e+00  8.1872087698322822e-04 -2.7701508978912544e-04 0.0000000000000000e+00  7.3050034024220109e-04 -1.4069822550623215e-02 0.0000000000000000e+00  -2.9161155773422057e-04 -5.5628345748330706e-02 0.0000000000000000e+00  -1.0497529341387034e-03 -7.6632720452142117e-02 0.0000000000000000e+00  1.4312878881645532e-02 -1.8432334884174564e-01 0.0000000000000000e+00  1.4689202447168379e-02 -1.8939576829760046e-01 0.0000000000000000e+00  1.7714945412835078e-02 -2.3041250900165619e-01 0.0000000000000000e+00  1.7714945412835078e-02 -2.3041250900165619e-01 0.0000000000000000e+00  1.0920179120884254e-02 -1.3823839792008019e-01 0.0000000000000000e+00  1.0920179120884254e-02 -1.3823839792008019e-01 0.0000000000000000e+00  -1.6147898451633631e-03 -9.6472163536176492e-02 0.0000000000000000e+00  -2.1875114393930433e-03 -1.1897156598584767e-01 0.0000000000000000e+00  -2.9504221137139079e-03 -2.4337655563995914e-01 0.0000000000000000e+00  8.2781279400711498e-04 -1.5258137975293228e-02 0.0000000000000000e+00  -3.3132537330536707e-03 -1.6013416870622466e-01 0.0000000000000000e+00  -2.7790174632704762e-03 -1.3878728870239129e-01 0.0000000000000000e+00  -4.4119466801001818e-03 -1.9973130416691398e-01 0.0000000000000000e+00  -3.9071938396554326e-03 -1.7969870935772919e-01 0.0000000000000000e+00  9.2143074652155516e-03 -1.1519963950437824e-01 0.0000000000000000e+00  9.2095509949486828e-03 -1.1518553818041162e-01 0.0000000000000000e+00  7.9833353500974281e-04 3.3651524652662026e-04 0.0000000000000000e+00  2.7919869871452820e-02 -3.6867701801068659e-01 0.0000000000000000e+00  2.5098292691666461e-02 -3.3044626738205884e-01 0.0000000000000000e+00  2.0028389469109179e-02 -2.6175255604429265e-01 0.0000000000000000e+00  1.9416286652903639e-02 -2.5345687292374330e-01 0.0000000000000000e+00  -5.7249847130734378e-03 -3.0221556635266628e-01 0.0000000000000000e+00  -4.9763077217170231e-03 -2.1881861534060501e-01 0.0000000000000000e+00  -5.4512533928233534e-03 -2.3760814657616239e-01 0.0000000000000000e+00  -9.9767229460349981e-04 -9.8932092931121055e-02 0.0000000000000000e+00  -1.5093626299210422e-03 -1.4107070216357487e-01 0.0000000000000000e+00  -6.6137938320535625e-04 -7.5462866538436923e-02 0.0000000000000000e+00  5.8306643887948116e-03 -6.9157218042408458e-02 0.0000000000000000e+00  -1.8420607352048807e-03 -1.8179283504976315e-01 0.0000000000000000e+00  -1.3099488485305887e-03 -1.1862262047632960e-01 0.0000000000000000e+00  -2.0211600168771526e-03 -2.2071464410694080e-01 0.0000000000000000e+00  -1.7559791005487154e-03 -1.6056477120955182e-01 0.0000000000000000e+00  -2.0109415377831123e-03 -2.0088188641995169e-01 0.0000000000000000e+00  1.2431975270213680e-04 -3.2623924757933555e-02 0.0000000000000000e+00  1.8312285194232354e-04 -3.4062839641511598e-02 0.0000000000000000e+00  -2.1077072802568085e-03 -3.0641618619003075e-01 0.0000000000000000e+00  3.5498186304358768e-03 -3.6646252295228478e-02 0.0000000000000000e+00  2.2310733158902755e-02 -2.9267537893799317e-01 0.0000000000000000e+00  -5.9725630645573050e-03 -4.8653049351610406e-01 0.0000000000000000e+00  -6.3097741227167350e-03 -5.0517547076519453e-01 0.0000000000000000e+00  1.1990597775097018e-02 -1.5282556509493953e-01 0.0000000000000000e+00  -1.0034015128584725e-02 -4.6931509573638064e-01 0.0000000000000000e+00  -3.1234477798485726e-03 -3.9671759168388332e-01 0.0000000000000000e+00  -2.8988160119179851e-03 -3.8428756371527156e-01 0.0000000000000000e+00  -2.2177189023025261e-03 -3.4699258132078004e-01 0.0000000000000000e+00  -1.9921075686646136e-03 -3.3454001200978117e-01 0.0000000000000000e+00  -4.0226562069252221e-03 -4.4643756953603919e-01 0.0000000000000000e+00  -3.7978480748739134e-03 -4.3400758516136229e-01 0.0000000000000000e+00  -1.8241488306074093e-03 -3.2203701645021177e-01 0.0000000000000000e+00  -7.3370085603230292e-03 -3.2010258845152101e-01 0.0000000000000000e+00  -1.0319037495087859e-02 -5.0574931663633005e-01 0.0000000000000000e+00  -9.1347855834131124e-03 -4.1959515445219220e-01 0.0000000000000000e+00  -8.9313491157522514e-03 -4.0834655379278634e-01 0.0000000000000000e+00  -9.8305737573897989e-03 -4.5806647310309617e-01 0.0000000000000000e+00  -1.0501270094455034e-02 -4.8227787635013525e-01 0.0000000000000000e+00  -8.2353489382279987e-03 -3.6987387651966974e-01 0.0000000000000000e+00  -8.0316421361299409e-03 -3.5862316262891986e-01 0.0000000000000000e+00  2.5492744181099734e-02 -3.3579121359596614e-01 0.0000000000000000e+00  3.6193959754399554e-03 -3.9540260892366993e-02 0.0000000000000000e+00  -5.3219182495145474e-05 -4.3204906816868810e-02 0.0000000000000000e+00  2.7919852711920601e-02 -3.6867697920109288e-01 0.0000000000000000e+00  1.7307524750673216e-02 -2.2488366338455765e-01 0.0000000000000000e+00  -2.2161457375626838e-03 -3.5948528639015709e-01 0.0000000000000000e+00  -2.4423534194406567e-03 -3.7191552159572666e-01 0.0000000000000000e+00  -4.0156985958052149e-03 -4.5892543949034442e-01 0.0000000000000000e+00  -4.4821002546184862e-03 -4.7184104777654884e-01 0.0000000000000000e+00  -3.1164558661817038e-03 -4.0920549097506542e-01 0.0000000000000000e+00  -3.3412707225002470e-03 -4.2163548533877915e-01 0.0000000000000000e+00  -9.8366776546324544e-03 -4.4553142981311966e-01 0.0000000000000000e+00  -9.8338046967038611e-03 -4.3250004854606611e-01 0.0000000000000000e+00  -8.0395126683373685e-03 -3.4609000990021255e-01 0.0000000000000000e+00  -8.0444118657681026e-03 -3.3307454536731163e-01 0.0000000000000000e+00  -8.9374626570798248e-03 -3.9581156131239081e-01 0.0000000000000000e+00  -8.9345183645218717e-03 -3.8278000961719655e-01 0.0000000000000000e+00  -5.8495586916331593e-04 -5.8749012006661175e-02 0.0000000000000000e+00  -2.6599256612642053e-03 -2.6659655771908874e-01 0.0000000000000000e+00  -4.5837195588844418e-05 -2.5843152847365752e-01 0.0000000000000000e+00  -3.7142474355698542e-02 -2.5777078003826204e-01 0.0000000000000000e+00  -2.6760253392196565e-03 -2.8246924180040739e-01 0.0000000000000000e+00  1.6808907570267730e-02 -2.1813145489068864e-01 0.0000000000000000e+00  1.1914359733024215e-02 -1.5182717209569860e-01 0.0000000000000000e+00  6.4647392896019206e-05 -1.2815027408745622e-02 0.0000000000000000e+00  -1.5236741794160925e-03 -1.2774254660083429e-02 0.0000000000000000e+00  1.0149312305572408e-03 -3.0881137639519346e-01 0.0000000000000000e+00  -4.3813617322709088e-02 -3.0808471294394846e-01 0.0000000000000000e+00  2.2512527837963297e-02 -2.9541128356055329e-01 0.0000000000000000e+00  8.2842573643757168e-03 -1.0279180763770154e-01 0.0000000000000000e+00  6.6439868953064455e-03 -8.0588492258464942e-02 0.0000000000000000e+00  2.0320923150602636e-02 -2.6571335985756978e-01 0.0000000000000000e+00  2.7713892960923309e-04 -2.7586939422490009e-01 0.0000000000000000e+00  -4.1717253155189309e-02 -2.9196806311258272e-01 0.0000000000000000e+00  6.3712188641727057e-04 -2.9267136271920069e-01 0.0000000000000000e+00  -5.4561435934720260e-03 -2.4838005431290883e-01 0.0000000000000000e+00  -5.7043036615059490e-03 -2.6412777802919085e-01 0.0000000000000000e+00  -2.0529574134674905e-03 -2.5302963581783450e-01 0.0000000000000000e+00  -3.2610656086476625e-04 -2.4036993688980332e-01 0.0000000000000000e+00  -3.4708453026297451e-02 -2.3974084358653275e-01 0.0000000000000000e+00  -7.8477765652839020e-03 -2.5503815931914531e-01 0.0000000000000000e+00  -3.2164198779686827e-02 -2.2113277576710741e-01 0.0000000000000000e+00  -5.5572293189122795e-04 -2.2172310538400433e-01 0.0000000000000000e+00  -2.1829691031973008e-03 -2.9758673600986896e-01 0.0000000000000000e+00  -9.2777429252306372e-03 -2.8959538617043989e-01 0.0000000000000000e+00  -6.0861655306306056e-03 -2.8248486139501028e-01 0.0000000000000000e+00  -9.9407989643630311e-03 -3.0582732778120258e-01 0.0000000000000000e+00  -7.3592855518882444e-04 -2.0254392545646030e-01 0.0000000000000000e+00  -2.9513541490926117e-02 -2.0199412595260050e-01 0.0000000000000000e+00  -2.0822012413462959e-03 -2.3451686821990902e-01 0.0000000000000000e+00  -1.8947831958035263e-03 -1.0777300866243869e-01 0.0000000000000000e+00  -8.6037060140236427e-04 -1.8286468568451350e-01 0.0000000000000000e+00  -2.6755836810547544e-02 -1.8236319339219481e-01 0.0000000000000000e+00  -2.2445963596895804e-03 -5.0931231747682981e-01 0.0000000000000000e+00  -4.8342435569858282e-02 -5.0847075144985143e-01 0.0000000000000000e+00  -2.0197889962986215e-03 -4.9688233264688159e-01 0.0000000000000000e+00  -4.8117628213069724e-02 -4.9604076661828911e-01 0.0000000000000000e+00  -4.4613528828209254e-04 -4.0987242337276159e-01 0.0000000000000000e+00  -4.6544003708201019e-02 -4.0903084641122650e-01 0.0000000000000000e+00  -2.2134075472453037e-04 -3.9744238516755559e-01 0.0000000000000000e+00  -4.6319179681635708e-02 -3.9660081191790914e-01 0.0000000000000000e+00  3.4267091844689505e-06 -3.8501243494717541e-01 0.0000000000000000e+00  -4.6094116232221011e-02 -3.8417096151375540e-01 0.0000000000000000e+00  2.2824669468325643e-04 -3.7258309060067829e-01 0.0000000000000000e+00  -4.5868770119469909e-02 -3.7174184695751827e-01 0.0000000000000000e+00  4.5348380542367618e-04 -3.6015452170704548e-01 0.0000000000000000e+00  -4.5645051084791950e-02 -3.5931292162530443e-01 0.0000000000000000e+00  6.7944128501650131e-04 -3.4772196578780662e-01 0.0000000000000000e+00  -4.5428777991246040e-02 -3.4687714315954554e-01 0.0000000000000000e+00  9.0337687181863953e-04 -3.3527032203949458e-01 0.0000000000000000e+00  -4.521760