<?xml version="1.0"?>
<VTKFile type="UnstructuredGrid"  version="0.1"  >
<UnstructuredGrid>
<Piece  NumberOfPoints="6614" NumberOfCells="12519">
<Points>
<DataArray  type="Float64"  NumberOfComponents="3"  format="ascii">0 0 0  6.5 -0.125 0  12 -0.125 0  12 0.125 0  6.5 0.125 0  0 1 0  12 0.875 0  6.5 0.875 0  -2.5 1 0  -2.5 0 0  3.25 0.0625 0  3.25 0.9375 0  3.25 -0.0625 0  9.25 0.125 0  9.25 0.875 0  9.25 -0.125 0  1.625 0.03125 0  1.625 0.96875 0  1.625 -0.03125 0  4.875 0.90625 0  4.875 0.09375 0  4.875 -0.09375 0  7.875 0.125 0  7.875 0.875 0  7.875 -0.125 0  10.625 0.875 0  10.625 0.125 0  10.625 -0.125 0  -1.25 1 0  -1.25 0 0  0.8125 0.015625 0  0.8125 0.984375 0  0.8125 -0.015625 0  2.4375 0.953125 0  2.4375 0.046875 0  2.4375 -0.046875 0  4.0625 0.078125 0  4.0625 0.921875 0  4.0625 -0.078125 0  5.6875 0.109375 0  5.6875 0.890625 0  5.6875 -0.109375 0  -1.875 0 0  -1.875 1 0  -0.625 0 0  -0.625 1 0  8.5625 0.875 0  8.5625 0.125 0  8.5625 -0.125 0  7.1875 0.125 0  7.1875 0.875 0  7.1875 -0.125 0  11.3125 0.125 0  11.3125 0.875 0  11.3125 -0.125 0  9.9375 0.125 0  9.9375 0.875 0  9.9375 -0.125 0  0 0.5 0  1.209585336538462 0.5 0  2.022385817307693 0.5 0  2.835186298076923 0.5 0  3.647986778846154 0.5 0  -0.9375 0.5 0  -1.5625 0.5 0  -2.5 0.5 0  4.460787259615385 0.5 0  5.28125 0.1015625 0  5.28125 0.8984375 0  5.28125 -0.1015625 0  6.09375 0.8828125 0  6.09375 0.1171875 0  6.09375 -0.1171875 0  8.90625 0.5 0  7.53125 0.5 0  8.21875 0.5 0  6.84375 0.5 0  10.28125 0.5 0  10.96875 0.5 0  12 0.5 0  9.59375 0.5 0  0.5506310096153846 0.5 0  -0.46875 0.4453125 0  -2.03125 0.4453125 0  5.070387620192307 0.5 0  5.883188100961538 0.5 0  4.46875 0.0859375 0  4.46875 -0.0859375 0  3.65625 -0.0703125 0  3.65625 0.0703125 0  2.84375 0.0546875 0  2.84375 -0.0546875 0  2.03125 -0.0390625 0  2.03125 0.0390625 0  1.21875 0.0234375 0  1.21875 -0.0234375 0  4.054387019230769 0.4847310450995098 0  3.241586538461538 0.4699247074852732 0  1.615985576923077 0.4417102219320143 0  5.476787860576923 0.53993893765092 0  2.428786057692307 0.4556005042418 0  0.40625 0.0078125 0  0.40625 -0.0078125 0  0.40625 0.9921875 0  4.46875 0.9140625 0  3.65625 0.9296875 0  2.84375 0.9453125 0  2.03125 0.9609375 0  1.21875 0.9765625 0  11.65625 0.875 0  11.484375 0.5 0  6.467329545454546 0.5 0  9.59375 -0.125 0  9.59375 0.125 0  10.28125 -0.125 0  10.28125 0.125 0  10.96875 -0.125 0  10.96875 0.125 0  6.84375 -0.125 0  6.84375 0.125 0  7.53125 -0.125 0  7.53125 0.125 0  8.21875 -0.125 0  8.21875 0.125 0  8.90625 -0.125 0  8.90625 0.125 0  11.65625 -0.125 0  11.65625 0.125 0  -0.3125 1 0  -2.1875 1 0  9.25 0.4700520833333333 0  9.59375 0.875 0  9.9375 0.5299479166666666 0  10.625 0.4700520833333333 0  10.96875 0.875 0  10.28125 0.875 0  6.84375 0.875 0  7.1875 0.5299479166666666 0  7.875 0.4700520833333333 0  8.21875 0.875 0  8.5625 0.5299479166666666 0  7.53125 0.875 0  8.90625 0.875 0  0.8801081730769231 0.63484883039911 0  -2.1875 0 0  -0.3125 0 0  0 0.25 0  0.2753155048076923 0.6865079365079365 0  1.011042668269231 0.2578125 0  1.446827777824054 0.7082004557951647 0  -1.25 0.65234375 0  -1.284375 0.326171875 0  -1.5625 0 0  -1.5625 1 0  -0.9375 0 0  -0.9375 1 0  1.823692908653846 0.7343749999999999 0  2.250687166802934 0.7075583934794667 0  4.765587439903847 0.3964836665810265 0  0.2753155048076923 0.375 0  3.054829110674799 0.707148526758953 0  2.636343149038462 0.7265625000000001 0  3.859250973615127 0.7069998487229827 0  3.448993389423077 0.7187500000000001 0  -0.78125 0.75 0  -0.78125 0.25 0  0 0.75 0  -2.5 0.25 0  -2.240776699029126 0.6856416868932038 0  -1.775 0.28515625 0  -1.71875 0.75 0  6.175258823208043 0.5886645441611957 0  4.261643629807693 0.7109374999999998 0  4.667893629807693 0.7031250000000002 0  1.824167367109634 0.2409531602990362 0  2.636686615214766 0.2555772588321514 0  1.38325552388875 0.2649704395311445 0  -0.46875 0.7446632922535211 0  3.449201796915416 0.2704128103983777 0  2.203202991433102 0.2729232708226779 0  4.261712450328808 0.2854838329019752 0  3.023283383806745 0.2808786583609286 0  3.843540099517909 0.288837436732593 0  0.6331235396611878 0.7683768130429148 0  0.6054339511832376 0.2166532884716425 0  6.256771799991964 0.3317884692185022 0  -0.2486470253814554 0.5949878961267605 0  -1.984670937186905 0.7576275392581842 0  11.2265625 0.3912760416666667 0  11.7421875 0.3912760416666667 0  -1.036405127827206 0.2643561701079966 0  10.78053977272727 0.6725260416666666 0  8.734375 0.3125 0  8.390625 0.3125 0  7.359375 0.3125 0  7.015625 0.3125 0  10.109375 0.3125 0  9.765625 0.3125 0  6.671875 0.3125 0  6.655539772727273 0.6725260416666669 0  11.78555345556989 0.6484760842723984 0  9.405539772727273 0.6725260416666666 0  9.094460227272727 0.6725260416666666 0  10.46946022727273 0.6725260416666666 0  11.140625 0.6875 0  8.030539772727273 0.6725260416666666 0  7.719460227272728 0.6725260416666666 0  -2.277018229166667 0.375 0  -0.2686215753424658 0.2654644691780822 0  0.7924173055676504 0.3931430043056919 0  -2.5 0.75 0  -1.525008560462654 0.2496950333675564 0  7.703125 0.2975260416666667 0  8.046875 0.2975260416666666 0  10.453125 0.2975260416666667 0  10.81190567787247 0.3125 0  9.078125 0.2975260416666667 0  9.421875 0.2975260416666666 0  10.12440567787247 0.6875 0  9.765625 0.7024739583333333 0  7.374405677872475 0.6875 0  7.015625 0.7024739583333333 0  8.749405677872474 0.6875 0  8.390625 0.7024739583333333 0  1.115551444307063 0.7401777158454262 0  5.28922999544003 0.360801083570939 0  5.078125 0.09765625 0  5.078125 -0.09765625 0  5.664767392260801 0.3650917682044265 0  -1.479229041916168 0.7258724738023952 0  -1.029665898617512 0.7685681883640553 0  0.203125 0.00390625 0  0.203125 -0.00390625 0  6.296875 0.12109375 0  6.296875 -0.12109375 0  -2.00322265625 0.205078125 0  -0.6971783980582524 0.5236271237864077 0  -0.546875 0.22265625 0  -1.801855111236272 0.5242311804773303 0  5.484375 0.10546875 0  5.890625 -0.11328125 0  5.890625 0.11328125 0  4.903633313301282 0.6699100680171115 0  5.260369462255295 0.6544725809557483 0  4.972693810096154 0.296875 0  4.671875 0.08984375 0  4.671875 -0.08984375 0  5.078125 0.90234375 0  4.265625 -0.08203125 0  4.265625 0.08203125 0  6.03259461594712 0.3328645427790781 0  5.890625 0.88671875 0  5.692656615207549 0.6488796598294736 0  6.296875 0.87890625 0  3.859375 0.07421875 0  3.859375 -0.07421875 0  4.561082497482947 0.2948209397629855 0  2.036725213111611 0.7135654082038703 0  3.453125 0.06640625 0  3.453125 -0.06640625 0  11.828125 0.125 0  11.828125 -0.125 0  11.484375 0.125 0  11.484375 -0.125 0  9.078125 0.125 0  9.078125 -0.125 0  8.734375 0.125 0  8.734375 -0.125 0  8.390625 0.125 0  8.390625 -0.125 0  8.046875 0.125 0  8.046875 -0.125 0  7.703125 0.125 0  7.703125 -0.125 0  7.359375 0.125 0  7.359375 -0.125 0  7.015625 0.125 0  7.015625 -0.125 0  6.671875 0.125 0  6.671875 -0.125 0  11.140625 0.125 0  11.140625 -0.125 0  10.796875 0.125 0  10.796875 -0.125 0  10.453125 0.125 0  10.453125 -0.125 0  10.109375 0.125 0  10.109375 -0.125 0  9.765625 0.125 0  9.765625 -0.125 0  9.421875 0.125 0  9.421875 -0.125 0  3.046875 0.05859375 0  3.046875 -0.05859375 0  2.846431093850899 0.7350694856199397 0  2.640625 -0.05078125 0  2.640625 0.05078125 0  0.203125 0.99609375 0  6.362699038303388 0.6807243972366781 0  2.234375 0.04296875 0  2.234375 -0.04296875 0  11.581701212888 0.6822801732596659 0  11.35203598484848 0.6662326388888888 0  1.828125 0.03515625 0  1.828125 -0.03515625 0  5.984553033425814 0.6914815580202875 0  1.822525515412832 0.4475696738977717 0  1.41733060903937 0.5025442175645189 0  1.588893519464248 0.2357861358511414 0  3.654445727495178 0.7241715610932831 0  -0.2708370651139332 0.7990289667308481 0  1.421875 0.02734375 0  1.421875 -0.02734375 0  5.484375 0.89453125 0  2.633855454650776 0.460690271159621 0  2.40795634504651 0.2507007772874862 0  2.225403489025307 0.476130253335854 0  1.015625 -0.01953125 0  1.015625 0.01953125 0  3.227321013248274 0.265830895248878 0  3.445567521085816 0.4744107463092357 0  3.038321171612397 0.4840806912614364 0  0.609375 0.01171875 0  0.609375 -0.01171875 0  4.257720382725849 0.4888191036475296 0  4.047058936483319 0.2812008669921838 0  3.851174586896061 0.4920378211671812 0  0.609375 0.98828125 0  4.464694218296445 0.7031618514150944 0  4.671875 0.91015625 0  4.265625 0.91796875 0  3.453125 0.93359375 0  3.859375 0.92578125 0  2.640625 0.94921875 0  3.046875 0.94140625 0  2.234375 0.95703125 0  1.828125 0.96484375 0  1.421875 0.97265625 0  1.015625 0.98046875 0  5.484375 -0.10546875 0  4.060661963989729 0.6870321141431521 0  -2.34375 0 0  -2.34375 1 0  1.003521337202078 0.4664537109579014 0  3.646922073215719 0.2678295141073984 0  3.253141618048695 0.6711470624742265 0  0.3013894287350291 0.1773590807784885 0  -1.124347644480009 0.4398459561477482 0  2.831246172847781 0.248957659490205 0  2.446473427278441 0.6570274073729461 0  -2.198800970885971 0.1954869700666445 0  2.01591648071966 0.2304840455985115 0  0.827600060761903 0.2057214409193794 0  1.640609275971101 0.6442729681322822 0  -0.15625 0 0  6.483664772727272 0.3124999999999999 0  5.477125710212377 0.3518294601818938 0  11.41161533959385 0.3125 0  12 0.3125 0  11.04150966040615 0.3125 0  12 0.6875 0  1.198054295914707 0.2143210783083181 0  -1.40625 0 0  0.9109798103993655 0.8221220157670066 0  5.845812869360681 0.3162425406240469 0  0.4667569911039429 0.6726473502422988 0  0.4593425712678239 0.3353704711440587 0  8.211153274166278 0.6806358075271245 0  9.586153274166278 0.6806358075271245 0  6.835007346992159 0.6944141097550816 0  6.663707386363637 0.4925130208333334 0  10.96058238636364 0.680013020833333 0  -1.40625 1 0  -1.320649221029402 0.826171875 0  5.082724050007036 0.6788909168133963 0  -0.1275597151206816 0.375 0  0.7018834652202378 0.6003751687871122 0  -1.71875 0 0  5.523196914803937 0.7163232589905226 0  0.3602612407862962 0.5307539682539683 0  0.1786479052710517 0.5327459553507268 0  1.289006631999016 0.8051714473419221 0  -1.328125 0.156663781811377
[...]
<PointData  Vectors="displacement"> 
<DataArray  type="Float64"  Name="displacement"  NumberOfComponents="3" format="ascii">0.0000000000000000e+00 0.0000000000000000e+00 0.0000000000000000e+00  -4.4421731762260143e-02 -3.0193676234207539e-01 0.0000000000000000e+00  -4.8128397799025911e-02 -5.0077816783704387e-01 0.0000000000000000e+00  -2.0320047193595849e-03 -5.0161957270022706e-01 0.0000000000000000e+00  1.5356892667431760e-03 -3.0271085912601919e-01 0.0000000000000000e+00  0.0000000000000000e+00 0.0000000000000000e+00 0.0000000000000000e+00  -1.3644758773096465e-02 -4.9872066353110656e-01 0.0000000000000000e+00  -9.8811339138784159e-03 -2.9983246242300199e-01 0.0000000000000000e+00  2.7919365070538285e-02 -3.6867618206942510e-01 0.0000000000000000e+00  2.7919365070538285e-02 -3.6867618206942510e-01 0.0000000000000000e+00  -7.1304456739707033e-04 -1.6532257438308595e-01 0.0000000000000000e+00  -4.2874997257236099e-03 -1.6122209272851060e-01 0.0000000000000000e+00  -2.5149977606216119e-02 -1.6485077055823691e-01 0.0000000000000000e+00  -2.3412503361767045e-04 -4.0219562310090651e-01 0.0000000000000000e+00  -1.1846888629616635e-02 -3.9929672842122738e-01 0.0000000000000000e+00  -4.6330542273853810e-02 -4.0135421074846345e-01 0.0000000000000000e+00  -5.2663513252446418e-04 -8.5571914561832246e-02 0.0000000000000000e+00  -1.4183013212114607e-03 -8.0914196535768701e-02 0.0000000000000000e+00  -1.2938293921238613e-02 -8.5329380921691955e-02 0.0000000000000000e+00  -7.2157066484718983e-03 -2.3508843369775220e-01 0.0000000000000000e+00  7.3465241579564623e-05 -2.3855941629145264e-01 0.0000000000000000e+00  -3.5672233557732545e-02 -2.3791712840664775e-01 0.0000000000000000e+00  6.6491938105941095e-04 -3.5248498145834112e-01 0.0000000000000000e+00  -1.0947313306774642e-02 -3.4958273352779767e-01 0.0000000000000000e+00  -4.5430848312247640e-02 -3.5164390659228750e-01 0.0000000000000000e+00  -1.2745815094306463e-02 -4.4900869642315155e-01 0.0000000000000000e+00  -1.1330652103126765e-03 -4.5190760590368134e-01 0.0000000000000000e+00  -4.7229459693378432e-02 -4.5106620071504355e-01 0.0000000000000000e+00  1.4313630360806814e-02 -1.8432370400187206e-01 0.0000000000000000e+00  1.4313630360806814e-02 -1.8432370400187206e-01 0.0000000000000000e+00  2.2411620383042958e-05 -4.4269419286035581e-02 0.0000000000000000e+00  -1.4265986660197332e-04 -3.9236331635035711e-02 0.0000000000000000e+00  -6.2077580720802531e-03 -4.4147819266653981e-02 0.0000000000000000e+00  -2.8271298725166582e-03 -1.2168822701823644e-01 0.0000000000000000e+00  -7.5871910244695309e-04 -1.2608008623606148e-01 0.0000000000000000e+00  -1.9254275271911106e-02 -1.2571739497560300e-01 0.0000000000000000e+00  -4.2491639483789259e-04 -2.0292929018201372e-01 0.0000000000000000e+00  -5.7605622293298480e-03 -1.9913367522427397e-01 0.0000000000000000e+00  -3.0622436319325371e-02 -2.0236486859886690e-01 0.0000000000000000e+00  7.4933742818358981e-04 -2.7189492766526790e-01 0.0000000000000000e+00  -8.6234563653301132e-03 -2.6875416550957737e-01 0.0000000000000000e+00  -4.0311384975376813e-02 -2.7120265379575109e-01 0.0000000000000000e+00  2.1116336485010431e-02 -2.7649998216146859e-01 0.0000000000000000e+00  2.1116336485010431e-02 -2.7649998216146859e-01 0.0000000000000000e+00  7.5206887158163630e-03 -9.2152016801406625e-02 0.0000000000000000e+00  7.5206887158163630e-03 -9.2152016801406625e-02 0.0000000000000000e+00  -1.1397253017095111e-02 -3.7444075363438822e-01 0.0000000000000000e+00  2.1531212032961547e-04 -3.7733953803229831e-01 0.0000000000000000e+00  -4.5880986686703581e-02 -3.7649815552574628e-01 0.0000000000000000e+00  1.1161672219817959e-03 -3.2761934614004734e-01 0.0000000000000000e+00  -1.0519545082046142e-02 -3.2474951320359319e-01 0.0000000000000000e+00  -4.4999628996316821e-02 -3.2677104554581105e-01 0.0000000000000000e+00  -1.5825346543713022e-03 -4.7676359025146170e-01 0.0000000000000000e+00  -1.3195287643002486e-02 -4.7386468091156581e-01 0.0000000000000000e+00  -4.7678928206995375e-02 -4.7592218530971625e-01 0.0000000000000000e+00  -6.8359624398465341e-04 -4.2705161946731446e-01 0.0000000000000000e+00  -1.2296339819399815e-02 -4.2415270594670779e-01 0.0000000000000000e+00  -4.6779991006241785e-02 -4.2621021451934538e-01 0.0000000000000000e+00  9.5948001002847845e-04 4.0749666181848386e-05 0.0000000000000000e+00  -5.5160538642869161e-04 -6.2152852517411893e-02 0.0000000000000000e+00  -1.4296881461305084e-03 -1.0332101211803980e-01 0.0000000000000000e+00  -2.2079739104970907e-03 -1.4343041159413514e-01 0.0000000000000000e+00  -2.8707549556803835e-03 -1.8209495636231038e-01 0.0000000000000000e+00  1.0904303253810293e-02 -1.3823393934364023e-01 0.0000000000000000e+00  1.7715444498739654e-02 -2.3041215526184203e-01 0.0000000000000000e+00  2.7919316281462579e-02 -3.6867617057094892e-01 0.0000000000000000e+00  -3.4156976461274715e-03 -2.1895399505333552e-01 0.0000000000000000e+00  3.9249041429919012e-04 -2.5552739827755055e-01 0.0000000000000000e+00  -7.9244774086843391e-03 -2.5222403314430514e-01 0.0000000000000000e+00  -3.8037962749178748e-02 -2.5486179467438663e-01 0.0000000000000000e+00  -9.3077901533472340e-03 -2.8461222857083890e-01 0.0000000000000000e+00  1.1366189052175741e-03 -2.8764752058850607e-01 0.0000000000000000e+00  -4.2487078405060906e-02 -2.8694282891651762e-01 0.0000000000000000e+00  -5.8157591113968008e-03 -3.8831819973479204e-01 0.0000000000000000e+00  -4.9134017834172742e-03 -3.3860520426027640e-01 0.0000000000000000e+00  -5.3665668778522090e-03 -3.6346200974506310e-01 0.0000000000000000e+00  -4.4828554028979121e-03 -3.1378051524217715e-01 0.0000000000000000e+00  -6.7147049878804026e-03 -4.3803015796068739e-01 0.0000000000000000e+00  -7.1641757723661815e-03 -4.6288614389601723e-01 0.0000000000000000e+00  -7.8383817191026613e-03 -5.0017011822129209e-01 0.0000000000000000e+00  -6.2652306038793008e-03 -4.1317416574285087e-01 0.0000000000000000e+00  4.1336951872276300e-04 -2.8293329421457993e-02 0.0000000000000000e+00  5.8215251482005145e-03 -6.9081324525452875e-02 0.0000000000000000e+00  2.2817107624033352e-02 -2.9954401877869552e-01 0.0000000000000000e+00  -3.7464744374991563e-03 -2.4521678886796575e-01 0.0000000000000000e+00  -4.0768778868520740e-03 -2.7813472565746900e-01 0.0000000000000000e+00  -2.0012747938785686e-04 -2.2101388922911003e-01 0.0000000000000000e+00  -3.3201195713303190e-02 -2.2040693168354020e-01 0.0000000000000000e+00  -2.7939054185311937e-02 -1.8383105944621431e-01 0.0000000000000000e+00  -5.9608293513283082e-04 -1.8435085261805875e-01 0.0000000000000000e+00  -7.6828158209203625e-04 -1.4588147507618704e-01 0.0000000000000000e+00  -2.2254413008565982e-02 -1.4546502411258574e-01 0.0000000000000000e+00  -1.6150165974051237e-02 -1.0565547326013887e-01 0.0000000000000000e+00  -6.8048052746604200e-04 -1.0595922525607415e-01 0.0000000000000000e+00  -2.8349288812061827e-04 -6.4985392194957012e-02 0.0000000000000000e+00  -9.6108640051208952e-03 -6.4805361439858655e-02 0.0000000000000000e+00  -3.0603628245109531e-03 -2.0083851005824943e-01 0.0000000000000000e+00  -2.4314102909429001e-03 -1.6310790227943089e-01 0.0000000000000000e+00  -9.4644273609602542e-04 -8.3133899818890591e-02 0.0000000000000000e+00  -4.3736801771163437e-03 -2.6182811892744706e-01 0.0000000000000000e+00  -1.7316325657825329e-03 -1.2374709396534100e-01 0.0000000000000000e+00  1.6639644424416508e-04 -2.3233077595790685e-02 0.0000000000000000e+00  -2.9740076522526133e-03 -2.3162550877553759e-02 0.0000000000000000e+00  3.5514070222728076e-05 -1.8556266590811749e-02 0.0000000000000000e+00  -6.4933450219153872e-03 -2.1738025522361451e-01 0.0000000000000000e+00  -5.0241078635204373e-03 -1.8039950559062418e-01 0.0000000000000000e+00  -3.5519299487489246e-03 -1.4163378763713685e-01 0.0000000000000000e+00  -2.1158848903926643e-03 -1.0143322491518507e-01 0.0000000000000000e+00  -7.2843036303883431e-04 -6.0158669821657892e-02 0.0000000000000000e+00  -1.3420023354121749e-02 -4.8629267238291801e-01 0.0000000000000000e+00  -7.5012788482978947e-03 -4.8152813140725292e-01 0.0000000000000000e+00  -4.3109338097717205e-03 -3.0014275635920712e-01 0.0000000000000000e+00  -4.6555260113694930e-02 -4.1378222002498843e-01 0.0000000000000000e+00  -4.5886109088565037e-04 -4.1462362600901365e-01 0.0000000000000000e+00  -4.7004725403357109e-02 -4.3863820753744293e-01 0.0000000000000000e+00  -9.0833073362095755e-04 -4.3947961269453972e-01 0.0000000000000000e+00  -4.7454193838975416e-02 -4.6349419336128289e-01 0.0000000000000000e+00  -1.3577998544891787e-03 -4.6433559842964967e-01 0.0000000000000000e+00  -4.4770005159198566e-02 -3.1430534867486598e-01 0.0000000000000000e+00  1.3338626648542057e-03 -3.1515507003107129e-01 0.0000000000000000e+00  -4.5210192861609280e-02 -3.3921515929878482e-01 0.0000000000000000e+00  8.9047275522268789e-04 -3.4005768337342829e-01 0.0000000000000000e+00  -4.5655785342356439e-02 -3.6407060414548686e-01 0.0000000000000000e+00  4.4000784455092585e-04 -3.6491179583008571e-01 0.0000000000000000e+00  -4.6105826604336791e-02 -3.8892616483732018e-01 0.0000000000000000e+00  -9.3943806111556214e-06 -3.8976758560484054e-01 0.0000000000000000e+00  -4.7903662881062771e-02 -4.8835017676482495e-01 0.0000000000000000e+00  -1.8072696156854462e-03 -4.8919158160450432e-01 0.0000000000000000e+00  4.0139597496269145e-03 -4.6068625806966010e-02 0.0000000000000000e+00  2.4517906239263431e-02 -3.2258810976222790e-01 0.0000000000000000e+00  -5.5767831909136617e-03 -4.0086192791455966e-01 0.0000000000000000e+00  -1.2071606664046089e-02 -4.1172470936357303e-01 0.0000000000000000e+00  -6.9536724910099247e-03 -4.2548640737517102e-01 0.0000000000000000e+00  -6.4757367862496810e-03 -4.5057390651047163e-01 0.0000000000000000e+00  -1.2970551607724153e-02 -4.6143668901447427e-01 0.0000000000000000e+00  -1.2521077701122207e-02 -4.3658070241732383e-01 0.0000000000000000e+00  -1.0272968676620821e-02 -3.1234817606851240e-01 0.0000000000000000e+00  -5.1501005395450323e-03 -3.2607050545757449e-01 0.0000000000000000e+00  -4.6776931028184084e-03 -3.5114922128458576e-01 0.0000000000000000e+00  -1.1171927880892061e-02 -3.6201215235551698e-01 0.0000000000000000e+00  -6.0548125636342518e-03 -3.7577447215707738e-01 0.0000000000000000e+00  -1.0728923342658098e-02 -3.3715709561685442e-01 0.0000000000000000e+00  -1.1622161703046455e-02 -3.8686878067571340e-01 0.0000000000000000e+00  -1.5626048296932851e-04 -4.4534956445901573e-02 0.0000000000000000e+00  2.4517906239263431e-02 -3.2258810976222790e-01 0.0000000000000000e+00  4.0139597496269145e-03 -4.6068625806966010e-02 0.0000000000000000e+00  8.1836039655521788e-04 -2.7647092422471359e-04 0.0000000000000000e+00  7.4613182678694894e-04 -1.3435289848579260e-02 0.0000000000000000e+00  -2.3032593814134174e-04 -5.3230411075012321e-02 0.0000000000000000e+00  -9.6238099408900511e-04 -7.3203103959964363e-02 0.0000000000000000e+00  1.4312356231711051e-02 -1.8432252500438334e-01 0.0000000000000000e+00  1.4688682373099326e-02 -1.8939494685988986e-01 0.0000000000000000e+00  1.7714424832112306e-02 -2.3041168658258360e-01 0.0000000000000000e+00  1.7714424832112306e-02 -2.3041168658258360e-01 0.0000000000000000e+00  1.0919665953227476e-02 -1.3823757879723320e-01 0.0000000000000000e+00  1.0919665953227476e-02 -1.3823757879723320e-01 0.0000000000000000e+00  -1.5050851104567472e-03 -9.2166903692161378e-02 0.0000000000000000e+00  -2.0534014334719713e-03 -1.1368330316300479e-01 0.0000000000000000e+00  -2.6926267151563296e-03 -2.3268306252257354e-01 0.0000000000000000e+00  8.4439144602276202e-04 -1.4591026751016010e-02 0.0000000000000000e+00  -3.1351600437298723e-03 -1.5303732610985415e-01 0.0000000000000000e+00  -2.6232105412156755e-03 -1.3262379705151478e-01 0.0000000000000000e+00  -4.1933751182511372e-03 -1.9089537574455043e-01 0.0000000000000000e+00  -3.7086787699006111e-03 -1.7174000388990973e-01 0.0000000000000000e+00  9.2137995137700698e-03 -1.1519883472277614e-01 0.0000000000000000e+00  9.2090184460735941e-03 -1.1518469827942403e-01 0.0000000000000000e+00  7.9763039540511405e-04 3.3778813298615448e-04 0.0000000000000000e+00  2.7919349520425511e-02 -3.6867619576216448e-01 0.0000000000000000e+00  2.5097772400040158e-02 -3.3044544516065411e-01 0.0000000000000000e+00  2.0027869271925115e-02 -2.6175173389923334e-01 0.0000000000000000e+00  1.9415766159231768e-02 -2.5345605050622344e-01 0.0000000000000000e+00  -5.4163795791735778e-03 -2.8895713332738204e-01 0.0000000000000000e+00  -4.7389416543742666e-03 -2.0914368630720354e-01 0.0000000000000000e+00  -5.1961054878282538e-03 -2.2710973786063915e-01 0.0000000000000000e+00  -8.8976333250187446e-04 -9.4623458861756701e-02 0.0000000000000000e+00  -1.3553530245165944e-03 -1.3490452941913181e-01 0.0000000000000000e+00  -5.7967811132279454e-04 -7.2184759057301123e-02 0.0000000000000000e+00  5.8301565971137573e-03 -6.9156418832401714e-02 0.0000000000000000e+00  -1.6452061452931427e-03 -1.7383146440683916e-01 0.0000000000000000e+00  -1.1800407663926839e-03 -1.1344103642651308e-01 0.0000000000000000e+00  -1.7850933439167017e-03 -2.1103727184871765e-01 0.0000000000000000e+00  -1.5812040465077158e-03 -1.5353585654443921e-01 0.0000000000000000e+00  -1.7945898284781919e-03 -1.9207702749556840e-01 0.0000000000000000e+00  1.6145537901234285e-04 -3.1123868719964806e-02 0.0000000000000000e+00  2.2033875871050535e-04 -3.2615299408136428e-02 0.0000000000000000e+00  -1.7965736918638189e-03 -2.9302715403446494e-01 0.0000000000000000e+00  3.5493941588928385e-03 -3.6645368203077573e-02 0.0000000000000000e+00  2.2310212884562294e-02 -2.9267455673821946e-01 0.0000000000000000e+00  -5.6492814124948949e-03 -4.7262737897928536e-01 0.0000000000000000e+00  -5.9863842305898900e-03 -4.9126936601504045e-01 0.0000000000000000e+00  1.1990075525178660e-02 -1.5282474061769338e-01 0.0000000000000000e+00  -9.7124643624054777e-03 -4.5541471150113938e-01 0.0000000000000000e+00  -2.8002325166258325e-03 -3.8282887508981372e-01 0.0000000000000000e+00  -2.5756820808884788e-03 -3.7040088086486450e-01 0.0000000000000000e+00  -1.8945833927706958e-03 -3.3311668986120502e-01 0.0000000000000000e+00  -1.6692766193192033e-03 -3.2068166579227281e-01 0.0000000000000000e+00  -3.6991506931136359e-03 -4.3254088845313965e-01 0.0000000000000000e+00  -3.4744148068395937e-03 -4.2011289403920332e-01 0.0000000000000000e+00  -1.5043916244815629e-03 -3.0824877346510721e-01 0.0000000000000000e+00  -7.0184938216599577e-03 -3.0632904936694300e-01 0.0000000000000000e+00  -9.9971368430037712e-03 -4.9184309278237298e-01 0.0000000000000000e+00  -8.8135188172143147e-03 -4.0570273147701136e-01 0.0000000000000000e+00  -8.6101463923254542e-03 -3.9445593243953486e-01 0.0000000000000000e+00  -9.5090875502562861e-03 -4.4416789141875912e-01 0.0000000000000000e+00  -1.0179731580139930e-02 -4.6837541248192482e-01 0.0000000000000000e+00  -7.9143589499740923e-03 -3.5598965342368999e-01 0.0000000000000000e+00  -7.7107184554481359e-03 -3.4474151105536094e-01 0.0000000000000000e+00  2.5492223809468667e-02 -3.3579039131639660e-01 0.0000000000000000e+00  3.6189814704080353e-03 -3.9539562541814045e-02 0.0000000000000000e+00  2.9894739404017692e-06 -4.1320717182226206e-02 0.0000000000000000e+00  2.7919332399062538e-02 -3.6867615694261807e-01 0.0000000000000000e+00  1.7307005089994797e-02 -2.2488284182626653e-01 0.0000000000000000e+00  -1.8930290698408049e-03 -3.4560362291781210e-01 0.0000000000000000e+00  -2.1192138178439458e-03 -3.5803101695943046e-01 0.0000000000000000e+00  -3.6920336379526850e-03 -4.4502675968586375e-01 0.0000000000000000e+00  -4.1584469795849935e-03 -4.5794029658807994e-01 0.0000000000000000e+00  -2.7930796543079958e-03 -3.9531477029632112e-01 0.0000000000000000e+00  -3.0178225057843188e-03 -4.0774277553442340e-01 0.0000000000000000e+00  -9.5153499155212328e-03 -4.3163485425960557e-01 0.0000000000000000e+00  -9.5126379019201315e-03 -4.1860555734422122e-01 0.0000000000000000e+00  -7.7188917532110025e-03 -3.3221405692798628e-01 0.0000000000000000e+00  -7.7245879863145940e-03 -3.1921679564191924e-01 0.0000000000000000e+00  -8.6164179053893515e-03 -3.8192295393332815e-01 0.0000000000000000e+00  -8.6136308638137520e-03 -3.6889352051127788e-01 0.0000000000000000e+00  -5.1534118719816734e-04 -5.6092884304552941e-02 0.0000000000000000e+00  -2.3803332076355386e-03 -2.5488827105230827e-01 0.0000000000000000e+00  2.2738037877996571e-04 -2.4711913021822599e-01 0.0000000000000000e+00  -3.6868008396876595e-02 -2.4646399578963663e-01 0.0000000000000000e+00  -2.3817425039737283e-03 -2.7006722046867365e-01 0.0000000000000000e+00  1.6808386418009857e-02 -2.1813063178999564e-01 0.0000000000000000e+00  1.1913841884937512e-02 -1.5182635250347465e-01 0.0000000000000000e+00  5.6437898206841920e-05 -1.2294972287325914e-02 0.0000000000000000e+00  -1.5332626457517534e-03 -1.2254367256180163e-02 0.0000000000000000e+00  1.3307456038431664e-03 -2.9527783706158650e-01 0.0000000000000000e+00  -4.3490837409619350e-02 -2.9455511322789613e-01 0.0000000000000000e+00  2.2512007416306681e-02 -2.9541046123451331e-01 0.0000000000000000e+00  8.2837481835680449e-03 -1.0279099030586548e-01 0.0000000000000000e+00  6.6434328749569622e-03 -8.0587636019220421e-02 0.0000000000000000e+00  2.0320403081317804e-02 -2.6571253775118425e-01 0.0000000000000000e+00  5.6633569962033568e-04 -2.6378645091562658e-01 0.0000000000000000e+00  -4.1414201496917324e-02 -2.7915155658287910e-01 0.0000000000000000e+00  9.4061376590614111e-04 -2.7984898886991860e-01 0.0000000000000000e+00  -5.1914533881363273e-03 -2.3741581808888879e-01 0.0000000000000000e+00  -5.4254260258000103e-03 -2.5247606269353279e-01 0.0000000000000000e+00  -1.7859763021129897e-03 -2.4192755584804121e-01 0.0000000000000000e+00  -7.0133539137677252e-05 -2.2985599723548306e-01 0.0000000000000000e+00  -3.4451164347117168e-02 -2.2923250559126465e-01 0.0000000000000000e+00  -7.5723933609132066e-03 -2.4373134127938514e-01 0.0000000000000000e+00  -3.1925584868660956e-02 -2.1144800870932062e-01 0.0000000000000000e+00  -3.1798351949758360e-04 -2.1203290242366557e-01 0.0000000000000000e+00  -1.8768210133336646e-03 -2.8454573178996245e-01 0.0000000000000000e+00  -8.9742339003764330e-03 -2.7677263837556720e-01 0.0000000000000000e+00  -5.7913556854465057e-03 -2.7003295418913748e-01 0.0000000000000000e+00  -9.6210444895303768e-03 -2.9229318697250728e-01 0.0000000000000000e+00  -5.1759286571236962e-04 -1.9370097088665958e-01 0.0000000000000000e+00  -2.9294467655063990e-02 -1.9315641260587291e-01 0.0000000000000000e+00  -1.8327746053086954e-03 -2.2423027030410067e-01 0.0000000000000000e+00  -1.7728668727151871e-03 -1.0297575017097547e-01 0.0000000000000000e+00  -6.6236005388872049e-04 -1.7489063195057478e-01 0.0000000000000000e+00  -2.6557257934156989e-02 -1.7439421796487362e-01 0.0000000000000000e+00  -1.9196371596607912e-03 -4.9540557717097228e-01 0.0000000000000000e+00  -4.8016030311685394e-02 -4.9456417235839378e-01 0.0000000000000000e+00  -1.6949021140541740e-03 -4.8297758597235030e-01 0.0000000000000000e+00  -4.7791295506993382e-02 -4.8213618108594608e-01 0.0000000000000000e+00  -1.2175823917769438e-04 -3.9598161011039873e-01 0.0000000000000000e+00  -4.6218187690707735e-02 -3.9514019271102963e-01 0.0000000000000000e+00  1.0296250009271280e-04 -3.8355355449976453e-01 0.0000000000000000e+00  -4.5993437440710917e-02 -3.8271214078380089e-01 0.0000000000000000e+00  3.2765483979094309e-04 -3.7112558905224174e-01 0.0000000000000000e+00  -4.5768436720388481e-02 -3.7028427960147353e-01 0.0000000000000000e+00  5.5240213189443625e-04 -3.5869825575782460e-01 0.0000000000000000e+00  -4.5543140149274734e-02 -3.5785718664871508e-01 0.0000000000000000e+00  7.7758597090674272e-04 -3.4627173222075824e-01 0.0000000000000000e+00  -4.5319546557011814e-02 -3.4543028991150881e-01 0.0000000000000000e+00  1.0035236892007400e-03 -3.3384103383984620e-01 0.0000000000000000e+00  -4.5103747173676344e-02 -3.3299621872559537e-01 0.0000000000000000e+00  1.2273507715512342e-03 -3.2139035069754052e-01 0.0000000000000000e+00  -4.489330050184