<?xml version="1.0"?>
<VTKFile type="UnstructuredGrid"  version="0.1"  >
<UnstructuredGrid>
<Piece  NumberOfPoints="1461" NumberOfCells="2789">
<Points>
<DataArray  type="Float64"  NumberOfComponents="3"  format="ascii">-0.5 6.123233995736766e-17 0  -0.4914865498419509 -0.09187475890828506 0  -0.466236114702178 -0.1806208330935763 0  -0.4251085678648071 -0.2632160814386779 0  -0.3695044586103295 -0.3368478218232786 0  -0.3013173181896286 -0.3990086136401195 0  -0.2228691778882694 -0.447581645677531 0  -0.1368314950360416 -0.4809128215864095 0  -0.04613417973165096 -0.4978670881475173 0  0.04613417973165122 -0.4978670881475172 0  0.1368314950360414 -0.4809128215864095 0  0.2228691778882688 -0.4475816456775313 0  0.3013173181896281 -0.3990086136401199 0  0.3695044586103293 -0.3368478218232789 0  0.4251085678648069 -0.2632160814386781 0  0.4662361147021779 -0.1806208330935765 0  0.4914865498419509 -0.09187475890828503 0  0.5 0 0  0.4914865498419509 0.09187475890828517 0  0.4662361147021779 0.1806208330935765 0  0.4251085678648071 0.2632160814386779 0  0.3695044586103295 0.3368478218232786 0  0.3013173181896282 0.3990086136401197 0  0.2228691778882692 0.4475816456775312 0  0.1368314950360415 0.4809128215864095 0  0.04613417973165101 0.4978670881475172 0  -0.04613417973165095 0.4978670881475173 0  -0.1368314950360414 0.4809128215864095 0  -0.2228691778882689 0.4475816456775313 0  -0.3013173181896281 0.3990086136401198 0  -0.3695044586103297 0.3368478218232785 0  -0.425108567864807 0.263216081438678 0  -0.4662361147021779 0.1806208330935767 0  -0.4914865498419509 0.09187475890828518 0  -0.9989008914857115 0.04687226246993986 0  -0.9989008914857115 -0.04687226246994006 0  -0.9901225145346509 -0.1402048722818856 0  -0.972642905324813 -0.2323053566349833 0  -0.9466156752904342 -0.3223643331611536 0  -0.912269552664897 -0.4095903603365061 0  -0.8699063724087903 -0.4932168926979072 0  -0.8198984236734248 -0.5725090172720717 0  -0.7626851781103823 -0.6467699120171984 0  -0.6987694277788414 -0.7153469695201277 0  -0.6287128665908849 -0.777637532133752 0  -0.5531311541252 -0.8330941881540912 0  -0.4726885051885656 -0.8812295824940283 0  -0.3880918526722498 -0.9216206995773374 0  -0.3000846350003406 -0.953912580814779 0  -0.2094402627661449 -0.977821443992945 0  -0.1169553219720827 -0.9931371771625541 0  -0.02344257360326047 -0.9997251851098159 0  0.07027618894529231 -0.9975275721840101 0  0.1633773618185306 -0.9865636510865464 0  0.2550427685616762 -0.9669297731502506 0  0.3444668502843321 -0.9387984816003867 0  0.4308637449409707 -0.9024169952385882 0  0.5134741935148417 -0.8581050358751444 0  0.5915722124135216 -0.8062520186022304 0  0.6644714734388218 -0.747313629600077 0  0.7315313352636686 -0.6818078215504381 0  0.7921624734111292 -0.6103102618497922 0  0.8458320592590973 -0.5334492736235703 0  0.8920684425573863 -0.4519003139999344 0  0.9304652963070865 -0.3663800381682465 0  0.9606851875768402 -0.2776400013875007 0  0.982462542875576 -0.1864600542916819 0  0.9956059820218981 -0.09364148953435038 0  1 0 0  0.9956059820218981 0.09364148953435077 0  0.9824625428755761 0.1864600542916812 0  0.9606851875768402 0.2776400013875006 0  0.9304652963070866 0.3663800381682462 0  0.8920684425573865 0.4519003139999338 0  0.8458320592590974 0.5334492736235703 0  0.7921624734111293 0.6103102618497921 0  0.731531335263669 0.6818078215504377 0  0.6644714734388217 0.7473136296000771 0  0.5915722124135224 0.8062520186022298 0  0.5134741935148421 0.8581050358751442 0  0.4308637449409705 0.9024169952385883 0  0.3444668502843328 0.9387984816003864 0  0.2550427685616765 0.9669297731502506 0  0.1633773618185302 0.9865636510865465 0  0.070276188945293 0.9975275721840101 0  -0.02344257360326044 0.9997251851098159 0  -0.1169553219720825 0.9931371771625542 0  -0.2094402627661442 0.9778214439929452 0  -0.3000846350003405 0.953912580814779 0  -0.3880918526722498 0.9216206995773374 0  -0.472688505188565 0.8812295824940286 0  -0.5531311541251994 0.8330941881540915 0  -0.6287128665908847 0.7776375321337522 0  -0.6987694277788417 0.7153469695201276 0  -0.7626851781103822 0.6467699120171985 0  -0.8198984236734244 0.5725090172720723 0  -0.8699063724087902 0.4932168926979075 0  -0.9122695526648968 0.4095903603365063 0  -0.9466156752904341 0.3223643331611538 0  -0.972642905324813 0.2323053566349835 0  -0.9901225145346509 0.1402048722818858 0  -1.1 1.1 0  -1.1 -1.1 0  1.1 -1.1 0  1.1 1.1 0  -1.1 0 0  0 -1.1 0  1.1 0 0  0 1.1 0  -1.1 -0.55 0  -1.1 0.55 0  0.55 -1.1 0  -0.55 -1.1 0  1.1 0.55 0  1.1 -0.55 0  -0.55 1.1 0  0.55 1.1 0  -1.1 -0.275 0  -1.1 0.275 0  0.275 -1.1 0  -0.275 -1.1 0  1.1 0.275 0  1.1 -0.275 0  -0.275 1.1 0  0.275 1.1 0  -1.1 -0.1375 0  -1.1 0.1375 0  0.1375 -1.1 0  -0.1375 -1.1 0  1.1 0.1375 0  1.1 -0.1375 0  -0.1375 1.1 0  0.1375 1.1 0  5.551115123125783e-17 0 0  1.1 0.8250000000000001 0  1.1 -0.8250000000000001 0  -0.8250000000000001 1.1 0  -0.8250000000000001 -1.1 0  -1.1 -0.8250000000000001 0  -1.1 0.8250000000000001 0  0.8250000000000001 -1.1 0  0.8250000000000001 1.1 0  -0.7452577130899811 0.07009504121197063 0  -0.7196145554063145 -0.2047479939110959 0  -0.6695870000800466 0.3334147091903505 0  -0.5967944603467291 -0.4506782564455942 0  -0.5037216596475655 0.5525563387374935 0  -0.3935412594153844 -0.6355909573281985 0  -0.2582020584797643 0.7036952909889966 0  -0.1224874465599003 -0.7396475322243659 0  1.804112415015879e-16 0.7472231737812758 0  0.1372852503520671 -0.7344112228591781 0  0.2911232306082124 0.6913445711599195 0  0.3932371367102588 -0.6350997822946517 0  0.5243503582032214 0.5367899979536359 0  0.5960259246062833 -0.4500978851946297 0  0.6847673336854203 0.3074465196515291 0  0.7183173129809632 -0.2043788966183693 0  0.7449256117842845 0.06204953239509305 0  -0.20035900300458 0.1513040956928792 0  -0.1321718625838789 -0.2134648875097201 0  0.1321718625838787 0.2134648875097203 0  0.1691454556057493 -0.1855437261303996 0  0.8703274951181128 0.8703274951181128 0  0.8537727593964153 -0.8740275859440739 0  0.2685886721097267 0.02488840569699225 0  -0.884556435066475 -0.8244315273435519 0  -0.8845564350664752 0.8244315273435516 0  -0.700580064659332 0.9548184980149617 0  -0.7005800646593325 -0.9548184980149612 0  -0.2980337216678105 -0.02761689135282146 0  -0.0549981651260624 0.2942141970944399 0  1.1 0.6875 0  0.9496207616733379 -0.7125799064602014 0  0.6875 -1.1 0  0.6875 1.1 0  -0.9625000000000001 1.1 0  -0.9625000000000001 -1.1 0  -1.1 -0.6875 0  -1.1 0.6875 0  2.081668171172169e-17 -0.3286953126985109 0  1.1 -0.9625000000000001 0  1.1 0.9625000000000001 0  -0.4285642961523128 0.7162057711357145 0  -0.2922226613044432 -0.776727428568197 0  0.174838450714037 0.8162746937229515 0  0.4617849541950493 0.6955138191869427 0  0.6845471893646073 0.4779975510912708 0  -0.8314184002977903 -0.07656163071707678 0  -0.8042940643706591 0.2324426440997535 0  -0.7469659197661445 -0.372041484500847 0  0.9435817685496533 0.6588731670051087 0  -0.6655841780668343 0.5027264603142332 0  -0.5616418371471765 -0.6162017817942277 0  -0.1378524463486731 0.8324299723484344 0  0.009440324071048431 -0.8383040935568646 0  0.6340216813999336 0.9549268270259341 0  0.6984391415215117 -0.9338903439767606 0  0.300664440564191 -0.7759990472259422 0  -1.1 -0.9625000000000001 0  -1.1 0.9625000000000001 0  0.9625000000000001 -1.1 0  0.9625000000000001 1.1 0  0.8255078551297768 0.1971637233367384 0  0.5931718080586599 -0.60724416156603 0  -0.964569560729961 0.61875 0  -0.9412184400777328 -0.675629987878325 0  0.01451466883707512 -0.1566382224930387 0  0.7445359644808093 -0.3707185760986815 0  -0.6496807851562796 -0.05960531119440617 0  -0.62683574040104 0.1785965340391935 0  -0.5834686517324597 -0.2905328669998186 0  -0.3401882519444225 0.5618906080620845 0  -0.5202412644899305 0.3927183715284568 0  -0.230469700834483 -0.6158690166206668 0  -0.439029499146694 -0.4815924191466816 0  0.1315973236401685 0.6465309847524076 0  -0.04929612731897073 0.1430325247211223 0  -0.1510628756856091 0.008271570971756887 0  0.2352800706632638 -0.6074862080268114 0  0.4388143211162365 -0.4814151137709591 0  0.5830621392046128 -0.290354993318151 0  0.8297887356081327 -0.08096868143845029 0  0.3167546236327295 -0.1265860605627834 0  0.2881011466407613 0.1826342016868564 0  -0.282843184752632 -0.2135932583519227 0  0.6472529330662994 -0.06273876808302634 0  -0.1187431011919023 0.6352194859156121 0  0.005630703506639467 -0.6493092616611125 0  0.3384713093165277 0.5466499340785792 0  0.5118553673379518 0.3865352308568081 0  0.6283965164136763 0.1635550987092959 0  -0.953685798793846 0.953685798793846 0  -0.89375 -0.9706384268651818 0  -0.6875 -1.1 0  0.4125 1.1 0  -0.6875 1.1 0  -0.4125 1.1 0  1.1 -0.4125 0  1.1 0.4125 0  0.4125 -1.1 0  -1.1 -0.4125 0  -1.1 0.4125 0  -0.4125 -1.1 0  1.1 -0.6875 0  0.1394115791193248 -0.04277964460399492 0  -0.3393513283955167 0.1110600808589604 0  -0.1930047892342392 0.3117134374691744 0  0.07927492778061024 0.3481510469172536 0  -0.1324701263156022 -0.3472242494295533 0  0.1439189409798292 -0.3272419854446572 0  0.7177822238787621 -0.5012045196611741 0  0.4845413164728957 -0.7297881373406302 0  0.9613904516514835 -0.9613904516514835 0  0.1835716722752551 -0.8570478058500863 0  0.02055237236693077 0.8764705026293684 0  -0.4210725768174081 -0.7622904223554584 0  -0.5511921771358804 0.6734406073486252 0  -0.6740102264683963 -0.5535712372257735 0  0.1021660343973917 0.08439258971470157 0  -0.7641327511364048 0.4203531262950583 0  -0.8282932755708275 -0.2728623792913848 0  -0.9854957873544363 0.7452945109297571 0  0.9722945504877303 -0.5512686332562167 0  -0.8708679406104808 0.04525295152524858 0  -0.3364219313405007 0.8047457289663124 0  -0.1870734116895495 -0.8510277858141307 0  0.8301367040255592 -0.2719899423920239 0  0.3741394004917264 0.7881775306901468 0  -0.8270615207685887 0.938295111785177 0  -0.7558474866591318 0.8308882058467112 0  0.6370644222528364 0.5962644341027006 0  0.7792401357821636 0.3928441213091871 0  0.8701243835998034 0.07
[...]
<PointData  Vectors="f_95"> 
<DataArray  type="Float64"  Name="f_95"  NumberOfComponents="3" format="ascii">1.0706211535171021e-02 1.3467647373651812e-02 0.0000000000000000e+00  -1.3513572630432846e-01 -1.1896774507559361e-01 0.0000000000000000e+00  -5.9170681931683289e-02 -2.1293518090527397e-01 0.0000000000000000e+00  -9.4270392571557862e-03 -3.1484285165361620e-01 0.0000000000000000e+00  9.1833388976893665e-02 -3.4300949176581191e-01 0.0000000000000000e+00  3.3532472404332064e-01 -2.4019490010088143e-01 0.0000000000000000e+00  4.0500119507017801e-01 -1.7899493736927405e-01 0.0000000000000000e+00  4.6165663914912808e-01 -1.0651594440867204e-01 0.0000000000000000e+00  4.8527166963503959e-01 -4.7107619599962888e-02 0.0000000000000000e+00  5.0088547792690719e-01 3.8188670084077433e-02 0.0000000000000000e+00  4.5814574224012117e-01 1.6632830587602848e-01 0.0000000000000000e+00  3.9764715800949918e-01 2.0410712125811523e-01 0.0000000000000000e+00  2.9889171234883338e-01 2.6431162814767617e-01 0.0000000000000000e+00  2.1113440122392366e-01 2.5529078339843086e-01 0.0000000000000000e+00  1.9715595885819434e-01 2.0916248951551017e-01 0.0000000000000000e+00  1.1025520559419616e-01 1.4248880136059200e-01 0.0000000000000000e+00  5.6172225950822781e-02 8.6763288469957137e-02 0.0000000000000000e+00  3.3406111247872043e-03 -2.4294793274952970e-03 0.0000000000000000e+00  2.8289780725319957e-02 -7.4652041184365289e-02 0.0000000000000000e+00  6.8871097357483971e-04 -1.9791261648901293e-01 0.0000000000000000e+00  9.9696003013251835e-02 -2.3711285557702283e-01 0.0000000000000000e+00  2.4772681599916618e-01 -2.3256957713183807e-01 0.0000000000000000e+00  2.9809784173571763e-01 -2.4029691793017224e-01 0.0000000000000000e+00  3.6228956003388479e-01 -2.2002167511647963e-01 0.0000000000000000e+00  4.3480898968440757e-01 -1.4018088552383426e-01 0.0000000000000000e+00  4.7111291122313126e-01 -5.2443572387766722e-02 0.0000000000000000e+00  4.9832630420207424e-01 4.2924829383795521e-02 0.0000000000000000e+00  4.4967478837711355e-01 1.7698347388453917e-01 0.0000000000000000e+00  3.8349337766979535e-01 2.0484347872352213e-01 0.0000000000000000e+00  3.0803085022072291e-01 2.2335959431665076e-01 0.0000000000000000e+00  2.4367817113257961e-01 2.5957235314089711e-01 0.0000000000000000e+00  1.2892050403724981e-01 2.0697143223888306e-01 0.0000000000000000e+00  2.1361671747126601e-01 1.2706433798402481e-01 0.0000000000000000e+00  6.4902626218782622e-02 6.3009381100825199e-02 0.0000000000000000e+00  -1.2541235244412643e-01 1.1495755132481533e-02 0.0000000000000000e+00  -1.2354046078269564e-01 -1.0914883496298764e-02 0.0000000000000000e+00  -1.1879297952683024e-01 -3.2392420588092719e-02 0.0000000000000000e+00  -1.1138808368963904e-01 -5.5068073103169510e-02 0.0000000000000000e+00  -9.7757066900880374e-02 -7.5230020265373329e-02 0.0000000000000000e+00  -8.1198156345472727e-02 -9.1836579373482871e-02 0.0000000000000000e+00  -6.2483456440283962e-02 -1.0474883428391299e-01 0.0000000000000000e+00  -4.2617274879985845e-02 -1.1481647179738112e-01 0.0000000000000000e+00  -1.9287533531404982e-02 -1.2444940295660367e-01 0.0000000000000000e+00  5.1665498408919232e-03 -1.2482435141908274e-01 0.0000000000000000e+00  2.3651012841879811e-02 -1.1818939461252354e-01 0.0000000000000000e+00  4.5826227931988227e-02 -1.1353347053903368e-01 0.0000000000000000e+00  6.7441816281605046e-02 -1.0144775336567752e-01 0.0000000000000000e+00  8.9532219937838900e-02 -9.0683903470278465e-02 0.0000000000000000e+00  1.0714688676703751e-01 -7.5596007811846069e-02 0.0000000000000000e+00  1.1299805879581308e-01 -5.0096971334451637e-02 0.0000000000000000e+00  1.1686882022154600e-01 -2.8349762337738730e-02 0.0000000000000000e+00  1.1960635721703969e-01 -7.3027406938878242e-03 0.0000000000000000e+00  1.2102767613471523e-01 1.9536569960696075e-02 0.0000000000000000e+00  1.1904058768240616e-01 4.1999733130681310e-02 0.0000000000000000e+00  1.0405057910930886e-01 5.9547970569832867e-02 0.0000000000000000e+00  9.1094279405488282e-02 7.9167918160194278e-02 0.0000000000000000e+00  7.2979935628732312e-02 9.6170279906168554e-02 0.0000000000000000e+00  5.5650209715429950e-02 1.0933144489063318e-01 0.0000000000000000e+00  3.5152657717409296e-02 1.1454108291897541e-01 0.0000000000000000e+00  1.4589031850550794e-02 1.2318891275719078e-01 0.0000000000000000e+00  -1.0391144815240172e-02 1.2089844022301248e-01 0.0000000000000000e+00  -3.1766297134505121e-02 1.1946040700589923e-01 0.0000000000000000e+00  -5.2451584462485698e-02 1.1180552040048498e-01 0.0000000000000000e+00  -7.3752163062465320e-02 9.8693700636236906e-02 0.0000000000000000e+00  -9.1064449219182150e-02 8.4789920553619447e-02 0.0000000000000000e+00  -1.0185294931089825e-01 6.7045048955133121e-02 0.0000000000000000e+00  -1.1558672341833309e-01 4.4932472616210473e-02 0.0000000000000000e+00  -1.2474768582739219e-01 2.0881611209224233e-02 0.0000000000000000e+00  -1.2362512022021278e-01 -1.1512954156206543e-03 0.0000000000000000e+00  -1.2053814378338891e-01 -2.3526519023804933e-02 0.0000000000000000e+00  -1.1573681282707281e-01 -4.5518062292979368e-02 0.0000000000000000e+00  -1.0572734427521747e-01 -6.5969150180930358e-02 0.0000000000000000e+00  -9.4944017695944655e-02 -8.3766198707429934e-02 0.0000000000000000e+00  -7.2836787032430669e-02 -9.7159748821681213e-02 0.0000000000000000e+00  -5.2056801314702424e-02 -1.0867114520339816e-01 0.0000000000000000e+00  -3.0780758986028441e-02 -1.2041588024646653e-01 0.0000000000000000e+00  -7.4034104500388361e-03 -1.2482408715434998e-01 0.0000000000000000e+00  1.4344614551301248e-02 -1.2007577870967102e-01 0.0000000000000000e+00  3.7126898134215942e-02 -1.1876981004922628e-01 0.0000000000000000e+00  5.5436548913756177e-02 -1.0725882629097429e-01 0.0000000000000000e+00  7.6654365860361992e-02 -9.6804602279900939e-02 0.0000000000000000e+00  9.3178095439318723e-02 -8.0068779286604705e-02 0.0000000000000000e+00  1.0571069029049165e-01 -6.0454797159576246e-02 0.0000000000000000e+00  1.1459599568339500e-01 -3.7732872167004591e-02 0.0000000000000000e+00  1.2040417062835046e-01 -1.7649980667236848e-02 0.0000000000000000e+00  1.2070195135824624e-01 3.5255266812059469e-03 0.0000000000000000e+00  1.1645777250974511e-01 2.6744186518395191e-02 0.0000000000000000e+00  1.1034494139521318e-01 5.0744352171483202e-02 0.0000000000000000e+00  1.0058440667085813e-01 7.3072043800828504e-02 0.0000000000000000e+00  9.4149164084219486e-02 8.9965832362974202e-02 0.0000000000000000e+00  7.4026464339965806e-02 1.0483338760434931e-01 0.0000000000000000e+00  5.0740247676047366e-02 1.1285221453514602e-01 0.0000000000000000e+00  2.3578714995608346e-02 1.1777100069451453e-01 0.0000000000000000e+00  3.7305017780302099e-03 1.2108340100959254e-01 0.0000000000000000e+00  -2.0841953635264272e-02 1.2469282597502419e-01 0.0000000000000000e+00  -4.2435971604909993e-02 1.1819537411600986e-01 0.0000000000000000e+00  -6.1884396343651664e-02 1.0522662114103214e-01 0.0000000000000000e+00  -8.1550236730549688e-02 9.2491409869260896e-02 0.0000000000000000e+00  -9.6444335865404032e-02 7.5282181826620526e-02 0.0000000000000000e+00  -1.0899429046455920e-01 5.5106456954190593e-02 0.0000000000000000e+00  -1.1903900067534803e-01 3.5287724084385352e-02 0.0000000000000000e+00  1.2000227631537754e-03 5.3222650971944979e-02 0.0000000000000000e+00  7.9329385648925325e-04 -5.3045614840776925e-02 0.0000000000000000e+00  2.5468239960495390e-03 5.1280019908177141e-02 0.0000000000000000e+00  5.3539564164288285e-04 -5.3196546052436261e-02 0.0000000000000000e+00  -1.0576919008457809e-01 -6.0283283552866265e-05 0.0000000000000000e+00  1.0397165230010565e-01 -1.2399315701351458e-03 0.0000000000000000e+00  -1.0693834612139767e-01 -6.1761764490793965e-04 0.0000000000000000e+00  1.0443648243324342e-01 -3.4513847082542432e-04 0.0000000000000000e+00  -5.0652661329260128e-02 -6.5993948980190231e-02 0.0000000000000000e+00  -4.9003792397935557e-02 6.5010760923287586e-02 0.0000000000000000e+00  5.0289078223489721e-02 6.8945835469328004e-02 0.0000000000000000e+00  4.8330606630523111e-02 -7.0926396550953660e-02 0.0000000000000000e+00  -4.9366934565724184e-02 -6.6471189180004206e-02 0.0000000000000000e+00  -4.9104645096881616e-02 6.6065912585499958e-02 0.0000000000000000e+00  4.7797152508975385e-02 6.8847683730997894e-02 0.0000000000000000e+00  4.9090454037830092e-02 -6.7835631318619985e-02 0.0000000000000000e+00  -8.9902712726464606e-02 -4.4108359710660232e-02 0.0000000000000000e+00  -8.6940379054888953e-02 4.2226726571170867e-02 0.0000000000000000e+00  8.6040971231297253e-02 4.8393949378491348e-02 0.0000000000000000e+00  8.7696802352840400e-02 -4.8320382424284124e-02 0.0000000000000000e+00  -9.0161392068986740e-02 -4.5712776706028621e-02 0.0000000000000000e+00  -8.9713073833454879e-02 4.6225981872986384e-02 0.0000000000000000e+00  8.6882557162677732e-02 4.8324742552194530e-02 0.0000000000000000e+00  8.7281103049246758e-02 -4.6377951803974152e-02 0.0000000000000000e+00  -1.0183495169242163e-01 -2.5366172517154766e-02 0.0000000000000000e+00  -1.0145575559154416e-01 2.5420538839387198e-02 0.0000000000000000e+00  9.9116468200059177e-02 2.6902640022398470e-02 0.0000000000000000e+00  9.8520162410119905e-02 -2.7082459552526535e-02 0.0000000000000000e+00  -1.0087684831951431e-01 -2.4285067708152280e-02 0.0000000000000000e+00  -1.0211948775282750e-01 2.4890793059231520e-02 0.0000000000000000e+00  9.8758136658974344e-02 2.7331146597300016e-02 0.0000000000000000e+00  9.8084165013894692e-02 -2.5975045777516248e-02 0.0000000000000000e+00  4.9873177234157612e-01 -4.3801889739585844e-06 0.0000000000000000e+00  -1.7503168131413470e-02 -6.2642048805980843e-02 0.0000000000000000e+00  -1.5764176461255584e-02 6.0738105434690340e-02 0.0000000000000000e+00  1.8005506158338919e-02 6.5025688548921143e-02 0.0000000000000000e+00  1.9203111411647780e-02 -6.4360432623768699e-02 0.0000000000000000e+00  -1.6870646448598432e-02 -6.4203720626939492e-02 0.0000000000000000e+00  -1.7997176071280877e-02 6.2859931936761301e-02 0.0000000000000000e+00  1.8352942539005615e-02 6.5956156226693999e-02 0.0000000000000000e+00  1.8408302359183882e-02 -6.6048860814674898e-02 0.0000000000000000e+00  -2.1096220459004453e-01 4.8916928767096773e-02 0.0000000000000000e+00  -1.8426565878203291e-01 -1.1672014066714939e-01 0.0000000000000000e+00  -1.2950981711206228e-01 1.7993172393025070e-01 0.0000000000000000e+00  -5.5888306400638979e-02 -2.1467369881684220e-01 0.0000000000000000e+00  2.2796816491304217e-02 2.2023249999338629e-01 0.0000000000000000e+00  9.8728156874504397e-02 -1.9325348653189198e-01 0.0000000000000000e+00  1.7112361327040090e-01 1.4466718517176069e-01 0.0000000000000000e+00  2.2274092014637845e-01 -7.5723228328683292e-02 0.0000000000000000e+00  2.4339991585452433e-01 -6.8256587357482549e-03 0.0000000000000000e+00  2.0180300852763772e-01 7.5256726581494016e-02 0.0000000000000000e+00  1.5214828328004301e-01 -1.5593246952066897e-01 0.0000000000000000e+00  1.0607285128066180e-01 1.9616026029766698e-01 0.0000000000000000e+00  8.1788761746644789e-03 -2.2343080295504492e-01 0.0000000000000000e+00  -6.1170785283199344e-02 2.1305578464106595e-01 0.0000000000000000e+00  -1.4507833518229382e-01 -1.6638968033520479e-01 0.0000000000000000e+00  -1.8940747130103233e-01 1.1330317778519768e-01 0.0000000000000000e+00  -2.1267619445694436e-01 -3.5382088301850113e-02 0.0000000000000000e+00  4.9728978141858571e-01 7.0145686208986546e-04 0.0000000000000000e+00  4.9852181805659035e-01 -4.5176353556491825e-04 0.0000000000000000e+00  4.9743750596902431e-01 -1.8086289887575692e-03 0.0000000000000000e+00  4.9653281730118454e-01 2.1705531721006323e-03 0.0000000000000000e+00  7.3145777871984764e-04 -8.1952172825382003e-02 0.0000000000000000e+00  2.2315449151082451e-03 8.1502172076097140e-02 0.0000000000000000e+00  4.9657664232202525e-01 -1.7962178677348613e-04 0.0000000000000000e+00  -5.1183739067926295e-03 -8.5057485839075631e-02 0.0000000000000000e+00  -4.2746428789789603e-03 8.3987422482423524e-02 0.0000000000000000e+00  2.6201009855311711e-02 8.4533408938157820e-02 0.0000000000000000e+00  2.7646891504742425e-02 -8.4366928010294939e-02 0.0000000000000000e+00  4.9705689265100311e-01 -2.4191652501113047e-04 0.0000000000000000e+00  4.9807856277037460e-01 4.6843215149118187e-04 0.0000000000000000e+00  -3.2036606765699721e-02 -6.6775040955890541e-02 0.0000000000000000e+00  -2.2944994875597886e-02 8.3464007679343435e-02 0.0000000000000000e+00  3.1414952834705807e-02 7.0517383654975035e-02 0.0000000000000000e+00  3.1499549242991469e-02 -6.8767947330440365e-02 0.0000000000000000e+00  7.8897802835267150e-03 5.9018864679117565e-02 0.0000000000000000e+00  7.6259052945904333e-03 -6.0183622973798111e-02 0.0000000000000000e+00  -3.0531446298748231e-02 -6.6242663261900550e-02 0.0000000000000000e+00  -3.1255163705139428e-02 6.7127899459672735e-02 0.0000000000000000e+00  4.9828492870366736e-01 2.1683957877212612e-04 0.0000000000000000e+00  -7.4662448897587766e-03 5.7126541137369438e-02 0.0000000000000000e+00  -6.2868969131333503e-03 -5.7253768302431243e-02 0.0000000000000000e+00  8.6468600873115420e-02 1.5606094847422378e-01 0.0000000000000000e+00  1.4029512102013014e-01 -1.1903808591242043e-01 0.0000000000000000e+00  1.6499916586833388e-01 -7.2330592677158440e-02 0.0000000000000000e+00  7.3677191777582848e-02 -1.6164490511444651e-01 0.0000000000000000e+00  -6.3428305878736449e-02 -1.6691070715605902e-01 0.0000000000000000e+00  -1.7388302418312196e-01 -2.9997640358900575e-02 0.0000000000000000e+00  -1.4484325468247619e-01 9.1685945949623093e-02 0.0000000000000000e+00  -1.0563332295287300e-01 -1.3669916712944657e-01 0.0000000000000000e+00  -3.2374650675255114e-02 -8.9575716854453868e-02 0.0000000000000000e+00  -4.5968173274544624e-02 1.6603132409075538e-01 0.0000000000000000e+00  1.8196393609954939e-02 -1.7509784939780232e-01 0.0000000000000000e+00  1.6868506631557523e-01 5.9306918046787512e-02 0.0000000000000000e+00  1.7859553347639376e-01 2.6785294982422324e-03 0.0000000000000000e+00  3.6876384865026257e-02 -8.8753337011696687e-02 0.0000000000000000e+00  2.6112626979625478e-02 8.9895445900502982e-02 0.0000000000000000e+00  1.3214849092185821e-01 1.2135712308964892e-01 0.0000000000000000e+00  -7.2540642209058858e-03 -5.7474871719159673e-02 0.0000000000000000e+00  -7.5779107933177320e-03 5.7025660583520835e-02 0.0000000000000000e+00  7.1275073580084301e-03 6.0345366720012145e-02 0.0000000000000000e+00  8.1155799208037765e-03 -5.9998120724264858e-02 0.0000000000000000e+00  -1.5274286130030551e-01 -7.7996656798650005e-02 0.0000000000000000e+00  4.1832141223260453e-03 1.7529813320993221e-01 0.0000000000000000e+00  -3.9835660595841219e-02 8.6438708655853680e-02 0.0000000000000000e+00  -3.0467080271033585e-02 -8.5973120691278826e-02 0.0000000000000000e+00  4.9870308391024537e-01 -9.2496139163591153e-06 0.0000000000000000e+00  -1.1110588290828081e-01 1.4028430327835092e-01 0.0000000000000000e+00  -3.0517935537219970e-01 -3.8273084485999448e-02 0.0000000000000000e+00  -2.3927615344120318e-01 1.5695298224952753e-01 0.0000000000000000e+00  -1.4158905056456755e-01 -2.2339262220102327e-01 0.0000000000000000e+00  1.4295906365984143e-01 2.5483472770717663e-01 0.0000000000000000e+00  -5.0964610690240220e-02 2.7328720691903563e-01 0.0000000000000000e+00  2.2036332761363980e-01 -1.9475944688867022e-01 0.0000000000000000e+00  5.0407765798530672e-02 -2.8091946445789695e-01 0.0000000000000000e+00  2.8085659740347541e-01 -1.1901875292044510e-01 0.0000000000000000e+00  4.9876088154589315e-01 -3.8733020549731509e-05 0.0000000000000000e+00  4.9851042511293764e-01 1.6803365198756423e-05 0.0000000000000000e+00  2.3144676280917909e-01 1.7798987366246252e-01 0.0000000000000000e+00  2.6164613263710983e-02 2.8007992916765406e-01 0.0000000000000000e+00  -1.3747912559131853e-01 2.1943185106875449e-01 0.0000000000000000e+00  -1.7970936701292159e-01 2.9875398528314119e-02 0.0000000000000000e+00  5.1690556675040300e-01 -5.6735566596951255e-03 0.0000000000000000e+00  4.9454792317785728e-01 -3.3035359813171697e-03 0.0000000000000000e+00  5.0538752656693853e-01 7.5755343327072395e-03 0.0000000000000000e+00  -2.6331101805724444e-01 6.3037938089953033e-02 0.0000000000000000e+00  2.9275569544018054e-01 9.8740651358412299e-02 0.0000000000000000e+00  3.0445117303064262e-01 -5.1701076783592492e-03 0.0000000000000000e+00  1.5340982683045548e-01 -2.5816774463909242e-01 0.0000000000000000e+00  -4.9544054789080333e-02 -2.7767041698351136e-01 0.0000000000000000e+00  -2.5334906085670211e-01 -1.3729911162364766e-01 0.0000000000000000e+00  -9.2541320910514264e-04 6.8213441328221450e-02 0.0000000000000000e+00  5.8230880485337219e-03 -7.1329715065872948e-02 0.0000000000000000e+00  3.1312435003482061e-02 -6.8413700231657062e-02 0.0000000000000000e+00  6.8906781768883957e-02 -6.3601923968450477e-02 0.0000000000000000e+00  3.1958169135951224e-02 7.0095904035501477e-02 0.0000000000000000e+00  6.8294890577531742e-02 6.3728104886643239e-02 0.0000000000000000e+00  -6.8642802329146338e-02 5.9026706106618504e-02 0.0000000000000000e+00  -6.5947996964977121e-02 -5.8726981036875313e-02 0.0000000000000000e+00  6.6040548529755230e-02 6.2708705807604320e-02 0.0000000000000000e+00  -6.4354946601432067e-02 -5.8421396198501022e-02 0.0000000000000000e+00  -6.8155114039942524e-02 5.8509720789438210e-02 0.0000000000000000e+00  6.7600427149411751e-02 -6.4027516519559527e-02 0.0000000000000000e+00  -3.1863526623721890e-02 6.4935960070064663e-02 0.0000000000000000e+00  4.9856317866588684e-01 2.4548186563897085e-05 0.0000000000000000e+00  4.6910128244458615e-01 1.4010818002657818e-02 0.0000000000000000e+00  4.9916286315435066e-01 8.6036228795220422e-04 0.0000000000000000e+00  4.9693307641599327e-01 -5.8002187924300827e-03 0.0000000000000000e+00  4.9769542910074871e-01 -2.4741923761470914e-03 0.0000000000000000e+00  4.9670722425567260e-01 9.4752275263573370e-04 0.0000000000000000e+00  -5.7250736253288179e-02 1.5222726875474829e-01 0.0000000000000000e+00  6.8127034997751676e-02 1.4973305237972795e-01 0.0000000000000000e+00  -3.9126562155415283e-04 6.6219398883002531e-02 0.0000000000000000e+00  1.4805488790960797e-01 6.9673314251612509e-02 0.0000000000000000e+00  1.6654873159323760e-01 -8.6994300981014568e-03 0.0000000000000000e+00  8.7193700316244349e-02 -1.3574421459019403e-01 0.0000000000000000e+00  3.3259034546770719e-02 1.5896116342492439e-01 0.0000000000000000e+00  -2.8659303873686908e-02 -1.6049804352092245e-01 0.0000000000000000e+00  4.9872656339667049e-01 -5.6184547465682823e-05 0.0000000000000000e+00  -8.6946832171727564e-02 1.3991542017591901e-01 0.0000000000000000e+00  -1.2941399699366421e-01 -9.5803116568718302e-02 0.0000000000000000e+00  -2.0912826404703207e-02 7.8353922099290402e-02 0.0000000000000000e+00  -5.1426710369953610e-02 8.4954220322833007e-02 0.0000000000000000e+00  -1.6123963455237034e-01 1.9222870105945433e-02 0.0000000000000000e+00  1.1044761942407909e-01 1.1754001166979451e-01 0.0000000000000000e+00  1.4885360194089894e-01 -7.0389495597640600e-02 0.0000000000000000e+00  -1.2902683808485238e-01 9.4041835236033502e-02 0.0000000000000000e+00  9.9070475375353850e-02 -1.2773738951391839e-01 0.0000000000000000e+00  9.9260819256247624e-03 7.8350301000363831e-02 0.0000000000000000e+00  8.0241721338979669e-03 9.6431940156275042e-02 0.0000000000000000e+00  -1.5556676319075886e-02 -1.6046668062123032e-01 0.0000000000000000e+00  -9.9356719940907612e-02 -1.3036239818062217e-01 0.0000000000000000e+00  -1.5852994984774921e-01 -3.1548291901975965e-02 0.0000000000000000e+00  -6.5440019130102193e-03 -7.0026002755738906e-02 0.0000000000000000e+00  -1.6774236540633614e-01 -2.4333627472002656e-01 0.0000000000000000e+00  4.6084725986408726e-01 2.4095454802393872e-02 0.0000000000000000e+00  4.8173558964025670e-01 -1.5562939589663347e-02 0.0000000000000000e+00  4.5538061706213245e-01 3.2905134446298223e-02 0.0000000000000000e+00  1.7490193923396829e-02 -9.5055008243101452e-02 0.0000000000000000e+00  1.5374760764090176e-02 -7.792646535110