<?xml version="1.0"?>
<VTKFile type="UnstructuredGrid"  version="0.1"  >
<UnstructuredGrid>
<Piece  NumberOfPoints="1461" NumberOfCells="2789">
<Points>
<DataArray  type="Float64"  NumberOfComponents="3"  format="ascii">-0.5 6.123233995736766e-17 0  -0.4914865498419509 -0.09187475890828506 0  -0.466236114702178 -0.1806208330935763 0  -0.4251085678648071 -0.2632160814386779 0  -0.3695044586103295 -0.3368478218232786 0  -0.3013173181896286 -0.3990086136401195 0  -0.2228691778882694 -0.447581645677531 0  -0.1368314950360416 -0.4809128215864095 0  -0.04613417973165096 -0.4978670881475173 0  0.04613417973165122 -0.4978670881475172 0  0.1368314950360414 -0.4809128215864095 0  0.2228691778882688 -0.4475816456775313 0  0.3013173181896281 -0.3990086136401199 0  0.3695044586103293 -0.3368478218232789 0  0.4251085678648069 -0.2632160814386781 0  0.4662361147021779 -0.1806208330935765 0  0.4914865498419509 -0.09187475890828503 0  0.5 0 0  0.4914865498419509 0.09187475890828517 0  0.4662361147021779 0.1806208330935765 0  0.4251085678648071 0.2632160814386779 0  0.3695044586103295 0.3368478218232786 0  0.3013173181896282 0.3990086136401197 0  0.2228691778882692 0.4475816456775312 0  0.1368314950360415 0.4809128215864095 0  0.04613417973165101 0.4978670881475172 0  -0.04613417973165095 0.4978670881475173 0  -0.1368314950360414 0.4809128215864095 0  -0.2228691778882689 0.4475816456775313 0  -0.3013173181896281 0.3990086136401198 0  -0.3695044586103297 0.3368478218232785 0  -0.425108567864807 0.263216081438678 0  -0.4662361147021779 0.1806208330935767 0  -0.4914865498419509 0.09187475890828518 0  -0.9989008914857115 0.04687226246993986 0  -0.9989008914857115 -0.04687226246994006 0  -0.9901225145346509 -0.1402048722818856 0  -0.972642905324813 -0.2323053566349833 0  -0.9466156752904342 -0.3223643331611536 0  -0.912269552664897 -0.4095903603365061 0  -0.8699063724087903 -0.4932168926979072 0  -0.8198984236734248 -0.5725090172720717 0  -0.7626851781103823 -0.6467699120171984 0  -0.6987694277788414 -0.7153469695201277 0  -0.6287128665908849 -0.777637532133752 0  -0.5531311541252 -0.8330941881540912 0  -0.4726885051885656 -0.8812295824940283 0  -0.3880918526722498 -0.9216206995773374 0  -0.3000846350003406 -0.953912580814779 0  -0.2094402627661449 -0.977821443992945 0  -0.1169553219720827 -0.9931371771625541 0  -0.02344257360326047 -0.9997251851098159 0  0.07027618894529231 -0.9975275721840101 0  0.1633773618185306 -0.9865636510865464 0  0.2550427685616762 -0.9669297731502506 0  0.3444668502843321 -0.9387984816003867 0  0.4308637449409707 -0.9024169952385882 0  0.5134741935148417 -0.8581050358751444 0  0.5915722124135216 -0.8062520186022304 0  0.6644714734388218 -0.747313629600077 0  0.7315313352636686 -0.6818078215504381 0  0.7921624734111292 -0.6103102618497922 0  0.8458320592590973 -0.5334492736235703 0  0.8920684425573863 -0.4519003139999344 0  0.9304652963070865 -0.3663800381682465 0  0.9606851875768402 -0.2776400013875007 0  0.982462542875576 -0.1864600542916819 0  0.9956059820218981 -0.09364148953435038 0  1 0 0  0.9956059820218981 0.09364148953435077 0  0.9824625428755761 0.1864600542916812 0  0.9606851875768402 0.2776400013875006 0  0.9304652963070866 0.3663800381682462 0  0.8920684425573865 0.4519003139999338 0  0.8458320592590974 0.5334492736235703 0  0.7921624734111293 0.6103102618497921 0  0.731531335263669 0.6818078215504377 0  0.6644714734388217 0.7473136296000771 0  0.5915722124135224 0.8062520186022298 0  0.5134741935148421 0.8581050358751442 0  0.4308637449409705 0.9024169952385883 0  0.3444668502843328 0.9387984816003864 0  0.2550427685616765 0.9669297731502506 0  0.1633773618185302 0.9865636510865465 0  0.070276188945293 0.9975275721840101 0  -0.02344257360326044 0.9997251851098159 0  -0.1169553219720825 0.9931371771625542 0  -0.2094402627661442 0.9778214439929452 0  -0.3000846350003405 0.953912580814779 0  -0.3880918526722498 0.9216206995773374 0  -0.472688505188565 0.8812295824940286 0  -0.5531311541251994 0.8330941881540915 0  -0.6287128665908847 0.7776375321337522 0  -0.6987694277788417 0.7153469695201276 0  -0.7626851781103822 0.6467699120171985 0  -0.8198984236734244 0.5725090172720723 0  -0.8699063724087902 0.4932168926979075 0  -0.9122695526648968 0.4095903603365063 0  -0.9466156752904341 0.3223643331611538 0  -0.972642905324813 0.2323053566349835 0  -0.9901225145346509 0.1402048722818858 0  -1.1 1.1 0  -1.1 -1.1 0  1.1 -1.1 0  1.1 1.1 0  -1.1 0 0  0 -1.1 0  1.1 0 0  0 1.1 0  -1.1 -0.55 0  -1.1 0.55 0  0.55 -1.1 0  -0.55 -1.1 0  1.1 0.55 0  1.1 -0.55 0  -0.55 1.1 0  0.55 1.1 0  -1.1 -0.275 0  -1.1 0.275 0  0.275 -1.1 0  -0.275 -1.1 0  1.1 0.275 0  1.1 -0.275 0  -0.275 1.1 0  0.275 1.1 0  -1.1 -0.1375 0  -1.1 0.1375 0  0.1375 -1.1 0  -0.1375 -1.1 0  1.1 0.1375 0  1.1 -0.1375 0  -0.1375 1.1 0  0.1375 1.1 0  5.551115123125783e-17 0 0  1.1 0.8250000000000001 0  1.1 -0.8250000000000001 0  -0.8250000000000001 1.1 0  -0.8250000000000001 -1.1 0  -1.1 -0.8250000000000001 0  -1.1 0.8250000000000001 0  0.8250000000000001 -1.1 0  0.8250000000000001 1.1 0  -0.7452577130899811 0.07009504121197063 0  -0.7196145554063145 -0.2047479939110959 0  -0.6695870000800466 0.3334147091903505 0  -0.5967944603467291 -0.4506782564455942 0  -0.5037216596475655 0.5525563387374935 0  -0.3935412594153844 -0.6355909573281985 0  -0.2582020584797643 0.7036952909889966 0  -0.1224874465599003 -0.7396475322243659 0  1.804112415015879e-16 0.7472231737812758 0  0.1372852503520671 -0.7344112228591781 0  0.2911232306082124 0.6913445711599195 0  0.3932371367102588 -0.6350997822946517 0  0.5243503582032214 0.5367899979536359 0  0.5960259246062833 -0.4500978851946297 0  0.6847673336854203 0.3074465196515291 0  0.7183173129809632 -0.2043788966183693 0  0.7449256117842845 0.06204953239509305 0  -0.20035900300458 0.1513040956928792 0  -0.1321718625838789 -0.2134648875097201 0  0.1321718625838787 0.2134648875097203 0  0.1691454556057493 -0.1855437261303996 0  0.8703274951181128 0.8703274951181128 0  0.8537727593964153 -0.8740275859440739 0  0.2685886721097267 0.02488840569699225 0  -0.884556435066475 -0.8244315273435519 0  -0.8845564350664752 0.8244315273435516 0  -0.700580064659332 0.9548184980149617 0  -0.7005800646593325 -0.9548184980149612 0  -0.2980337216678105 -0.02761689135282146 0  -0.0549981651260624 0.2942141970944399 0  1.1 0.6875 0  0.9496207616733379 -0.7125799064602014 0  0.6875 -1.1 0  0.6875 1.1 0  -0.9625000000000001 1.1 0  -0.9625000000000001 -1.1 0  -1.1 -0.6875 0  -1.1 0.6875 0  2.081668171172169e-17 -0.3286953126985109 0  1.1 -0.9625000000000001 0  1.1 0.9625000000000001 0  -0.4285642961523128 0.7162057711357145 0  -0.2922226613044432 -0.776727428568197 0  0.174838450714037 0.8162746937229515 0  0.4617849541950493 0.6955138191869427 0  0.6845471893646073 0.4779975510912708 0  -0.8314184002977903 -0.07656163071707678 0  -0.8042940643706591 0.2324426440997535 0  -0.7469659197661445 -0.372041484500847 0  0.9435817685496533 0.6588731670051087 0  -0.6655841780668343 0.5027264603142332 0  -0.5616418371471765 -0.6162017817942277 0  -0.1378524463486731 0.8324299723484344 0  0.009440324071048431 -0.8383040935568646 0  0.6340216813999336 0.9549268270259341 0  0.6984391415215117 -0.9338903439767606 0  0.300664440564191 -0.7759990472259422 0  -1.1 -0.9625000000000001 0  -1.1 0.9625000000000001 0  0.9625000000000001 -1.1 0  0.9625000000000001 1.1 0  0.8255078551297768 0.1971637233367384 0  0.5931718080586599 -0.60724416156603 0  -0.964569560729961 0.61875 0  -0.9412184400777328 -0.675629987878325 0  0.01451466883707512 -0.1566382224930387 0  0.7445359644808093 -0.3707185760986815 0  -0.6496807851562796 -0.05960531119440617 0  -0.62683574040104 0.1785965340391935 0  -0.5834686517324597 -0.2905328669998186 0  -0.3401882519444225 0.5618906080620845 0  -0.5202412644899305 0.3927183715284568 0  -0.230469700834483 -0.6158690166206668 0  -0.439029499146694 -0.4815924191466816 0  0.1315973236401685 0.6465309847524076 0  -0.04929612731897073 0.1430325247211223 0  -0.1510628756856091 0.008271570971756887 0  0.2352800706632638 -0.6074862080268114 0  0.4388143211162365 -0.4814151137709591 0  0.5830621392046128 -0.290354993318151 0  0.8297887356081327 -0.08096868143845029 0  0.3167546236327295 -0.1265860605627834 0  0.2881011466407613 0.1826342016868564 0  -0.282843184752632 -0.2135932583519227 0  0.6472529330662994 -0.06273876808302634 0  -0.1187431011919023 0.6352194859156121 0  0.005630703506639467 -0.6493092616611125 0  0.3384713093165277 0.5466499340785792 0  0.5118553673379518 0.3865352308568081 0  0.6283965164136763 0.1635550987092959 0  -0.953685798793846 0.953685798793846 0  -0.89375 -0.9706384268651818 0  -0.6875 -1.1 0  0.4125 1.1 0  -0.6875 1.1 0  -0.4125 1.1 0  1.1 -0.4125 0  1.1 0.4125 0  0.4125 -1.1 0  -1.1 -0.4125 0  -1.1 0.4125 0  -0.4125 -1.1 0  1.1 -0.6875 0  0.1394115791193248 -0.04277964460399492 0  -0.3393513283955167 0.1110600808589604 0  -0.1930047892342392 0.3117134374691744 0  0.07927492778061024 0.3481510469172536 0  -0.1324701263156022 -0.3472242494295533 0  0.1439189409798292 -0.3272419854446572 0  0.7177822238787621 -0.5012045196611741 0  0.4845413164728957 -0.7297881373406302 0  0.9613904516514835 -0.9613904516514835 0  0.1835716722752551 -0.8570478058500863 0  0.02055237236693077 0.8764705026293684 0  -0.4210725768174081 -0.7622904223554584 0  -0.5511921771358804 0.6734406073486252 0  -0.6740102264683963 -0.5535712372257735 0  0.1021660343973917 0.08439258971470157 0  -0.7641327511364048 0.4203531262950583 0  -0.8282932755708275 -0.2728623792913848 0  -0.9854957873544363 0.7452945109297571 0  0.9722945504877303 -0.5512686332562167 0  -0.8708679406104808 0.04525295152524858 0  -0.3364219313405007 0.8047457289663124 0  -0.1870734116895495 -0.8510277858141307 0  0.8301367040255592 -0.2719899423920239 0  0.3741394004917264 0.7881775306901468 0  -0.8270615207685887 0.938295111785177 0  -0.7558474866591318 0.8308882058467112 0  0.6370644222528364 0.5962644341027006 0  0.7792401357821636 0.3928441213091871 0  0.8701243835998034 0.07
[...]
<PointData  Scalars="f_53"> 
<DataArray  type="Float64"  Name="f_53"  format="ascii">-2.5000000000000000e-01  -2.4574327492097545e-01  -2.3311805735108898e-01  -2.1255428393240353e-01  -1.8475222930516477e-01  -1.5065865909481430e-01  -1.1143458894413473e-01  -6.8415747518020778e-02  -2.3067089865825480e-02  2.3067089865825612e-02  6.8415747518020695e-02  1.1143458894413444e-01  1.5065865909481405e-01  1.8475222930516466e-01  2.1255428393240350e-01  2.3311805735108895e-01  2.4574327492097545e-01  2.5000000000000000e-01  2.4574327492097545e-01  2.3311805735108895e-01  2.1255428393240355e-01  1.8475222930516480e-01  1.5065865909481410e-01  1.1143458894413458e-01  6.8415747518020750e-02  2.3067089865825507e-02  -2.3067089865825473e-02  -6.8415747518020736e-02  -1.1143458894413445e-01  -1.5065865909481407e-01  -1.8475222930516483e-01  -2.1255428393240350e-01  -2.3311805735108893e-01  -2.4574327492097545e-01  -1.2486261143571394e-01  -1.2486261143571394e-01  -1.2376531431683138e-01  -1.2158036316560163e-01  -1.1832695941130428e-01  -1.1403369408311212e-01  -1.0873829655109880e-01  -1.0248730295917810e-01  -9.5335647263797785e-02  -8.7346178472355179e-02  -7.8589108323860610e-02  -6.9141394265649997e-02  -5.9086063148570699e-02  -4.8511481584031228e-02  -3.7510579375042583e-02  -2.6180032845768114e-02  -1.4619415246510340e-02  -2.9303217004075584e-03  8.7845236181615383e-03  2.0422170227316329e-02  3.1880346070209536e-02  4.3058356285541513e-02  5.3857968117621335e-02  6.4184274189355212e-02  7.3946526551690206e-02  8.3058934179852731e-02  9.1441416907958581e-02  9.9020309176391152e-02  1.0572900740738718e-01  1.1150855531967328e-01  1.1630816203838582e-01  1.2008564844710502e-01  1.2280781785944700e-01  1.2445074775273726e-01  1.2500000000000000e-01  1.2445074775273726e-01  1.2280781785944701e-01  1.2008564844710502e-01  1.1630816203838583e-01  1.1150855531967332e-01  1.0572900740738718e-01  9.9020309176391166e-02  9.1441416907958623e-02  8.3058934179852717e-02  7.3946526551690303e-02  6.4184274189355267e-02  5.3857968117621315e-02  4.3058356285541596e-02  3.1880346070209564e-02  2.0422170227316277e-02  8.7845236181616250e-03  -2.9303217004075554e-03  -1.4619415246510305e-02  -2.6180032845768024e-02  -3.7510579375042576e-02  -4.8511481584031228e-02  -5.9086063148570622e-02  -6.9141394265649928e-02  -7.8589108323860582e-02  -8.7346178472355207e-02  -9.5335647263797771e-02  -1.0248730295917804e-01  -1.0873829655109878e-01  -1.1403369408311211e-01  -1.1832695941130426e-01  -1.2158036316560163e-01  -1.2376531431683138e-01  -5.6818181818181816e-02  -5.6818181818181816e-02  5.6818181818181816e-02  5.6818181818181816e-02  -1.1363636363636363e-01  0.0000000000000000e+00  1.1363636363636363e-01  0.0000000000000000e+00  -9.0909090909090912e-02  -9.0909090909090912e-02  4.5454545454545456e-02  -4.5454545454545456e-02  9.0909090909090912e-02  9.0909090909090912e-02  -4.5454545454545456e-02  4.5454545454545456e-02  -1.0695187165775399e-01  -1.0695187165775399e-01  2.6737967914438499e-02  -2.6737967914438499e-02  1.0695187165775399e-01  1.0695187165775399e-01  -2.6737967914438499e-02  2.6737967914438499e-02  -1.1188811188811189e-01  -1.1188811188811189e-01  1.3986013986013986e-02  -1.3986013986013986e-02  1.1188811188811189e-01  1.1188811188811189e-01  -1.3986013986013986e-02  1.3986013986013986e-02  2.7755575615628914e-17  7.2727272727272710e-02  7.2727272727272710e-02  -5.4545454545454536e-02  -5.4545454545454536e-02  -7.2727272727272710e-02  -7.2727272727272710e-02  5.4545454545454536e-02  5.4545454545454536e-02  -1.6625645968291181e-01  -1.6069515286250449e-01  -1.4959171065407359e-01  -1.3338585085601565e-01  -1.1262812794914887e-01  -8.8024703725924566e-02  -5.7444067082306233e-02  -2.7239691805610592e-02  4.0389915403906421e-17  3.0742455226649340e-02  6.4669901898551249e-02  8.8092780488050429e-02  1.1640087242229188e-01  1.3355784302853788e-01  1.5191943594919954e-01  1.6098535966397562e-01  1.6664575662076234e-01  -1.0017950150228998e-01  -6.6085931291939459e-02  6.6085931291939334e-02  8.4572727802874642e-02  7.1812048166441156e-02  7.1488389009911141e-02  1.3429433605486335e-01  -7.5622378807355367e-02  -7.5622378807355381e-02  -6.2440700955072474e-02  -6.2440700955072530e-02  -1.4901686083390525e-01  -2.7499082563031199e-02  8.1716036772216546e-02  8.4213131344319347e-02  5.1072522982635336e-02  5.1072522982635336e-02  -5.6315366049879322e-02  -5.6315366049879322e-02  -8.1716036772216546e-02  -8.1716036772216546e-02  1.0408340855860843e-17  6.4360418342719231e-02  6.4360418342719231e-02  -7.6900872801596284e-02  -5.3038848307797995e-02  3.1361253408794573e-02  8.2818331044693910e-02  1.2275147637486644e-01  -1.4908130949081849e-01  -1.4343572682457076e-01  -1.3408151447023134e-01  8.9053414281127050e-02  -1.1958271427569139e-01  -1.0099347553386899e-01  -2.4203562451904050e-02  1.6789535104145600e-03  6.0320112592270117e-02  6.4196265232013022e-02  5.4265790089440449e-02  -6.4360418342719231e-02  -6.4360418342719231e-02  5.6315366049879322e-02  5.6315366049879322e-02  1.4325033605070431e-01  1.0289571810493117e-01  -9.1811583734089389e-02  -8.7645341787424239e-02  7.2573344185375577e-03  1.3453535849678216e-01  -1.9079620293324867e-01  -1.8444167046868870e-01  -1.7167103061371061e-01  -9.8559786721696477e-02  -1.5305582320719952e-01  -6.6623460917562577e-02  -1.2922418116279535e-01  3.7787510423161072e-02  -2.4648063659485367e-02  -7.5531437842804569e-02  6.9298472782139742e-02  1.2927031824057200e-01  1.7178494883896964e-01  1.4921997568230702e-01  1.5837731181636475e-01  1.4405057332038065e-01  -1.4142159237631602e-01  1.9132626090369570e-01  -3.5542996770877494e-02  1.6693093241409984e-03  1.0234649676487310e-01  1.5552037149382236e-01  1.8629866878201826e-01  -6.5535210945833061e-02  -6.4171952448120240e-02  -5.1072522982635336e-02  3.7359900373599000e-02  -5.1072522982635336e-02  -3.7359900373599000e-02  9.9626400996264006e-02  9.9626400996264006e-02  3.7359900373599000e-02  -9.9626400996264006e-02  -9.9626400996264006e-02  -3.7359900373599000e-02  8.1716036772216546e-02  6.9705789559662418e-02  -1.6967566419775837e-01  -9.6502394617119625e-02  3.9637463890305119e-02  -6.6235063157801102e-02  7.1959470489914579e-02  1.1706778929226289e-01  7.8928788748861278e-02  6.5010007008741391e-02  2.9869276073392657e-02  3.3424015931886593e-03  -6.9402491039648892e-02  -9.0975613139900768e-02  -1.1075043527357308e-01  5.1083017198695867e-02  -1.2558131070811532e-01  -1.3613864919062887e-01  -8.0690200165728906e-02  9.7287531897846696e-02  -1.4314844227309881e-01  -5.5274704850625606e-02  -3.0799259857455921e-02  1.3598000702216420e-01  6.1438744737051909e-02  -6.6083359953045470e-02  -7.4884985398412998e-02  1.0459009513161591e-01  1.2790503512268012e-01  1.4248407193691967e-01  -6.9738370046021625e-02  1.8202898681234078e-01  -1.4943245646180081e-01  1.1463493428837451e-01  1.3976943077860510e-01  7.1430912629240589e-02  6.2809164498598524e-02  2.4183227088689580e-03  -1.0379622976563804e-01  7.3884357444541221e-02  -1.0525230511177806e-01  6.4735003045206990e-02  -1.3431068139727068e-01  5.6284392597737057e-02  -8.7260367587136872e-02  -1.9632186312154640e-01  -1.6299009350629995e-01  -5.6288323364969070e-02  -5.7460497310906487e-02  -7.4357897232087161e-02  1.0751666696961183e-01  1.6300810317966280e-01  -2.0333776743633825e-01  -1.8284707469174313e-01  -3.5995638508010415e-02  -9.6613775752393008e-02  1.9659304917788123e-01  1.3263493647787311e-01  -1.0049400936479974e-01  8.3392960094982385e-02  7.7610263354431483e-02  -4.0245774853884309e-02  3.8648498862622525e-02  -7.0780632333473356e-02  1.9340546097237082e-01  4.8312964330870671e-02  9.7936619065786143e-02  7.1895722215482405e-02  6.2523678366586996e-02  7.5020406328951281e-02  8.2112097586500510e-02  -1.8091686790407957e-01  2.0452868387255591e-01  -7.8070685453931948e-02  -8.2391801465590817e-02  -8.5449951572702521e-02  -1.0158079253103497e-01  -4.7608872282049353e-02  3.5576251640631246e-02  -1.1743921763025146e-01  -6.2591394310999457e-02  -7.2540388646945453e-02  9.8382782007370245e-02  -1.3606398657435453e-01  4.4001468657189700e-02  8.9620514870874898e-02  -1.3580801665653680e-01  -1.2903797717127624e-01  9.3916570246977762e-02  4.7641928451125463e-02  -4.7562180552186868e-02  -6.0528649262488889e-02  -1.2494408003883589e-01  1.2321659185353523e-02  -2.0067801286284082e-01  -8.6754979198844055e-03  -6.8968611147704126e-02  -3.5159116153256356e-02  1.0627263383165110e-01  -1.0372537004874154e-01  1.3993420607535167e-01  1.5983540265124455e-01  -9.6568539764745435e-03  -2.3062607903494833e-02  -6.0778890296065029e-02  5.8487792877833268e-02  3.6342169089186180e-02  1.1773877215068262e-01  1.3287120150377893e-01  -6.0026061311919579e-02  6.0568774938104614e-02  7.0401617399687019e-02  6.0606060606060608e-02  -6.1098605084028680e-02  -5.9114137376176427e-02  1.0915946399715731e-01  1.0372949117129747e-01  1.0915946399715731e-01  1.0421856614497715e-01  1.0048883689046038e-01  8.6323172376584836e-02  -6.5792457698518630e-02  -5.9108850591958806e-02  -6.6985550143926903e-02  1.3704199724835109e-01  6.0480060480060487e-02  1.5459162050402797e-01  -1.0306907501964289e-01  6.2963813693793128e-02  8.6404731270224456e-03  1.3848442966204397e-01  2.2620079116626619e-02  4.4264233879325279e-02  7.7164215095249566e-02  -1.0753636406880741e-01  8.6323172376584836e-02  1.2546360328211864e-01  -1.5884591685592647e-01  -3.2351989647363306e-02  -3.9839795996973459e-02  -4.0005584063325217e-02  1.6804525823968897e-01  -1.4628515878065176e-01  -1.6612331332805910e-01  -1.3916056321512282e-01  -1.0660717666289815e-01  8.0898493080029665e-02  -5.4944548346763461e-02  1.1907764580866854e-01  1.0390969169003537e-01  8.5641917231980072e-02  6.8957769333906571e-02  1.5928886011259080e-02  4.1797789844600600e-02  1.5443628555784744e-01  -9.5706693043572325e-03  1.7956208569890782e-02  -9.3931433803649420e-02  -8.8128146745069802e-02  2.0266583149876666e-01  1.8832416686696885e-01  6.8449197860962568e-02  -1.0816775892668515e-01  -7.7931771593268459e-02  -1.4522920764228014e-02  -4.6765030461191258e-02  -1.7140281888325834e-01  8.8502236469787401e-02  1.6700373775355004e-01  8.9709847061568954e-02  1.4832055766992844e-01  5.1212610329284390e-02  -8.1279775924646191e-02  -1.2394859218192748e-01  -1.2979897941996058e-01  -1.5851258739110599e-01  -4.0825921486083001e-02  1.3056989640850347e-01  3.2351989647363306e-02  3.2351989647363306e-02  -5.5042798448666504e-02  -2.8496882770596851e-02  -3.7137873425806198e-02  1.8309598330355562e-02  4.1554442233379035e-02  4.0467964442736759e-02  -1.5960711528003163e-01  -1.8815985432081128e-01  8.5565415684464657e-02  1.7883281649564370e-01  1.5691478845744597e-01  -4.0890025620648585e-02  -6.9621940660395329e-02  -1.0676493674275939e-01  8.0979514726575455e-02  1.1863539050192769e-01  1.5287554280049770e-01  -5.8357530307345432e-02  -1.4581253331829289e-01  3.0289422635858178e-02  3.1210935563563574e-03  -1.4717514002502491e-01  -6.4116902514385024e-02  -7.6991633529986447e-02  3.0114669054965640e-02  7.7374495181473837e-02  1.3647599480653200e-01  1.0818474768733490e-01  1.1645258880732313e-01  5.6170276814447320e-02  -1.3476927793563365e-01  1.7047282468366537e-01  -1.2081547614640038e-01  -9.0089584000123860e-02  5.0186651200631184e-02  1.1819762755189930e-01  -6.3804641958858876e-02  -1.1288392938572198e-01  -8.7376168366810253e-02  -1.2989989695389548e-01  -1.4925833084730009e-01  -1.1237861998236190e-01  -1.4375140525613303e-01  4.8556784461828970e-02  5.2597954685068109e-02  -1.2284945594729202e-01  -1.2853583652715828e-01  6.4703489306836545e-02  7.0837370105272371e-02  9.8690928582672352e-02  6.6333029572973740e-02  1.5174884413884304e-01  1.3547365735516717e-01  5.8285626521769142e-02  4.0227344690491808e-02  5.6972883943464475e-02  7.4465795123146591e-02  -9.1288559843059804e-03  -4.3433301244206246e-02  -7.7960226876349514e-02  -1.1087920106188009e-01  -9.8086508761438609e-02  -8.9824881596403311e-02  2.0427314952657002e-01  -1.4196682997124260e-01  -5.7766303060694392e-02  1.1511570443876759e-01  7.7242698219785397e-03  -2.2785198152010522e-02  -1.1335482556014209e-01  8.6718666160492786e-02  8.0424503784590429e-02  -2.1322248045092249e-01  9.3783184678753337e-02  1.3121978644866542e-01  -1.0042292483305933e-02  -1.6173625155339147e-01  -2.1068130775090541e-01  -1.8705695872163255e-01  2.9629944244906808e-02  -1.8096768522922696e-01  1.0003506395474601e-01  -1.6909933740358293e-01  -1.0811585503966653e-01  -1.3355687954594309e-01  -1.1284692989769878e-01  -1.2455809340532910e-01  -1.1951472293418475e-02  8.9878891536635988e-02  1.4833861911693277e-01  1.0719102509588928e-01  1.3523164904550072e-01  1.9859442400816135e-01  6.9869491463175559e-02  2.1947302329818830e-01  -1.1859641162564123e-02  3.3981431926122810e-02  -3.6923904635897002e-02  -4.2445686803671397e-02  -1.5306755006963080e-01  -1.5894065886145708e-01  -1.8056517674494860e-01  -9.6153677607364485e-02  2.0583190394511147e-02  2.0583190394511147e-02  9.1437663706645314e-02  9.7236931552452582e-02  1.2001754702628850e-01  1.0616860018714022e-01  1.5072521238569112e-01  1.8365472078123338e-01  -1.0977701543739279e-01  -1.0977701543739279e-01  -2.1841576110787242e-02  6.0223020877624586e-02  8.6796118259518482e-02  -1.0822172600853501e-01  -1.3362309976743608e-01  1.7371463529792033e-01  2.9761928259828478e-02  1.5795179385777824e-01  1.3172534701279440e-01  -3.3039576477727144e-02  -9.9256388610824184e-02  -6.7341286380970200e-02  9.4736602990625723e-02  1.6031904504688121e-02  4.9860612064502839e-02  -1.1454451176197832e-01  2.2189967243346844e-02  7.8628424474156980e-02  -1.4457553218854613e-01  6.6962288789682453e-02  -8.1787313451830101e-02  7.8793166147751378e-02  -9.7323835221764091e-02  -1.5499717232329607e-01  -1.7859650174214356e-01  -5.6116737002030431e-02  -2.3008644738100867e-02  1.0122926928914398e-02  -1.7582373875870339e-01  -1.4175661054870892e-01  6.8831268653640310e-02  1.6980190392557318e-01  1.8231577542372335e-01  8.9874219616807055e-02  6.6969956842913750e-02  -1.5617507564668159e-01  5.5825441231290261e-02  7.5031663455733255e-02  5.6700056700056699e-02  -4.4635331852359530e-02  1.2560324100191986e-01  5.1103632421826500e-02  9.2894933788989914e-02  -9.0384250917817308e-02  -2.0880357801467345e-01  2.7478430923826305e-02  -3.5751313646390254e-02  -1.3366338857733884e-01  -4.1508774955477806e-03  -2.1662580486202712e-01  2.1315942014946948e-01  8.1628169249692656e-02  9.7634368505234659e-02  1.2842313354040688e-01  -9.3469767762610845e-02  -8.5227251750871549e-02  -9.3106846715239874e-02  -7.0746374248319777e-03  -7.0746374248319777e-03  7.6723737707100489e-02  5.9492813092887772e-02  5.1266741948536136e-02  6.6061036918651145e-02  -1.1234353068257605e-01  -6.7974869076034936e-02  1.3453464323694486e-01  1.8223543393820127e-01  1.5994280772749869e-01  1.4320845719303071e-01  -1.8225086153314032e-01  -1.0375770397073568e-01  2.1037014854594682e-01  -1.2971855386457345e-01  -7.1201247668228496e-02  -8.2483061324371929e-02  6.2655214516830773e-02  -2.0086582523777566e-01  1.1695078980547946e-01  -1.9954081756692638e-01  -2.1164379182223436e-01  -1.2026076774608392e-01  1.5382872282746264e-02  -3.0104784152645787e-02  -2.0583190394511147e-02  -3.2573452633319844e-02  -1.3459912142470740e-01  1.8696894753164889e-01  6.4410629347699908e-02  8.3025077674480321e-02  -8.3086768843317130e-02  -7.7164215095249566e-02  1.0977701543739279e-01  1.1483594866988647e-01  1.0977701543739279e-01  1.1483594866988645e-01  -1.0800616579791682e-01  -6.1186026462508140e-02  -7.5622891638798734e-02  -7.0412689607460305e-02  -5.7068221282266525e-02  -6.0224053199557530e-02  -6.9646703451725966e-02  5.3050397877984080e-02  8.6834616922724484e-02  3.5844967771911887e-02  1.7912084055144878e-01  -2.4050813833864954e-02  -1.1296096980770028e-01  6.4407776934806427e-02  7.2638295859023011e-02  7.7675123060396048e-02  8.3501856646621866e-02  -1.3500538456303099e-01  4.8625915661747246e-03  -6.7000890528100751e-02  9.6932935067074913e-02  3.5978836163314570e-02  -5.6700056700056699e-02  -6.0480060480060487e-02  -5.0730411853248038e-02  -5.3258147690817140e-03  8.7281459747843917e-02  -7.3149804792124129e-02  -7.5212652093295987e-02  1.3301005092437646e-01  -1.9410526354461458e-02  2.4859357526528916e-02  2.6535010168708018e-02  3.3438542437711181e-02  -9.5380029806259300e-02  5.4394234809292126e-02  -1.8329293845959238e-01  -1.0352636687156259e-01  -5.9282445941241414e-02  -1.0417334000694689e-01  1.3218197121385361e-01  1.1319419879731164e-01  1.1319419879731164e-01  1.5899915401347842e-01  -1.4210598907807781e-01  -1.7452750819387627e-01  -7.7164215095249566e-02  -7.5782960841303232e-02  4.9156893514617661e-02  4.5102810375396984e-17  -1.9408554392534066e-02  -6.1494175675551759e-02  -1.1910125263420245e-01  9.5380029806259300e-02  -8.6323172376584836e-02  -7.9064856277854118e-02  6.6964195172622948e-02  3.5045884968434353e-02  -6.2056138811043632e-02  -5.4947927019608628e-02  -1.5263531106705441e-01  1.2527325362502775e-01  1.7849076246372958e-01  5.5614973262032089e-02  -5.3050397877984080e-02  7.7164215095249566e-02  6.8449197860962568e-02  5.5614973262032089e-02  -5.3050397877984080e-02  -5.5614973262032089e-02  5.3050397877984080e-02  -6.8449197860962568e-02  -6.8449197860962568e-02  -5.5614973262032089e-02  -1.0352636687156259e-01  -9.5380029806259300e-02  1.0352636687156259e-01  1.0352636687156259e-01  -3.2351989647363306e-02  -4.1728763040238447e-02  4.1728763040238447e-02  -4.1728763040238447e-02  4.1728763040238447e-02  7.0746374248319777e-03  7.0746374248319777e-03  -1.1319419879731164e-01  -1.1319419879731164e-01  9.5380029806259300e-02  -2.0583190394511147e-02  4.8556784461828970e-02  -4.8556784461828970e-02  -6.0480060480060487e-02  -5.6700056700056699e-02  6.0480060480060487e-02  5.6700056700056699e-02  -8.6323172376584836e-02  -4.8556784461828970e-02  -3.7085221552999079e-02  -9.4210169605403307e-02  -9.3644775110962836e-02  6.3307833252739032e-02  9.6423855926510191e-02  9.1332461950899654e-02  6.8989445230893023e-02  7.6555648950079949e-02  -6.7876139248097989e-02  -8.5121437450865076e-02  -5.1158965586345855e-02  5.1845820938113990e-02  6.0334516247100629e-02  -1.2837660349821831e-01  2.3069635849384233e-17  1.0373152068329007e-01  -2.1155723130334789e-01  -9.2517277450781032e-02  -8.6181934651835157e-02  -8.1004037481621216e-02  1.1831733543646392e-01  -7.0432555017922990e-02  -9.6447026810278724e-02  8.7597153227696276e-02  -2.5521008557372587e-02  6.5402310261578098e-02  -8.8285734790575596e-02  1.5216544556502534e-01  5.8919670408529509e-02  7.5551119777745118e-02  1.1158536783019292e-01  1.7830190814464730e-01  1.4384093401864859e-01  1.2773551273971573e-01  -4.9363353512694254e-02  7.6635581017426610e-02  6.8640186466074463e-02  2.0492979334016395e-01  -8.2748336192635871e-02  5.7808162375795037e-02  3.2175734731757145e-02  -5.7398661181442136e-02  -1.2458768313604757e-01  -1.1855459754838336e-01  -4.0667700181069096e-04  1.4759301813349698e-01  -6.7634268275041973e-02  1.5422649115877035e-01  -4.9043987834664730e-03  -1.8015539628501828e-01  -6.0028524376181204e-02  1.0260007157140884e-01  -1.1696818633282327e-01  -1.1491743368889859e-01  -1.1989115674254733e-01  -1.0266506610900439e-01  -8.2763380453145741e-02  8.9303621513674922e-02  6.1475217977639766e-02  -6.1188196015180170e-02  -7.9390206099318461e-02  6.8315673086590561e-02  -6.1232410439614637e-02  -6.6026672591825569e-02  -8.1945734025966735e-02  -6.4903603989051747e-02  -1.4175222663958559e-01  -4.4882702805881816e-02  9.2218315679422111e-02  -7.5119138130210164e-02  -4.1655687838802614e-02  -2.8382473099365011e-02  -1.9865325661878414e-01  -1.2181908821089378e-01  -1.2053373963088330e-01  -1.3268703162619810e-01  -2.0289885893052775e-02  -5.6343788346911540e-02  -5.4319643503280494e-02  1.0413731135438853e-01  9.9833994443877541e-02  -2.5825863886022146e-02  1.1529002305569350e-01  -7.0743203959000