<?xml version="1.0"?>
<VTKFile type="UnstructuredGrid"  version="0.1"  >
<UnstructuredGrid>
<Piece  NumberOfPoints="1461" NumberOfCells="2789">
<Points>
<DataArray  type="Float64"  NumberOfComponents="3"  format="ascii">-0.5 6.123233995736766e-17 0  -0.4914865498419509 -0.09187475890828506 0  -0.466236114702178 -0.1806208330935763 0  -0.4251085678648071 -0.2632160814386779 0  -0.3695044586103295 -0.3368478218232786 0  -0.3013173181896286 -0.3990086136401195 0  -0.2228691778882694 -0.447581645677531 0  -0.1368314950360416 -0.4809128215864095 0  -0.04613417973165096 -0.4978670881475173 0  0.04613417973165122 -0.4978670881475172 0  0.1368314950360414 -0.4809128215864095 0  0.2228691778882688 -0.4475816456775313 0  0.3013173181896281 -0.3990086136401199 0  0.3695044586103293 -0.3368478218232789 0  0.4251085678648069 -0.2632160814386781 0  0.4662361147021779 -0.1806208330935765 0  0.4914865498419509 -0.09187475890828503 0  0.5 0 0  0.4914865498419509 0.09187475890828517 0  0.4662361147021779 0.1806208330935765 0  0.4251085678648071 0.2632160814386779 0  0.3695044586103295 0.3368478218232786 0  0.3013173181896282 0.3990086136401197 0  0.2228691778882692 0.4475816456775312 0  0.1368314950360415 0.4809128215864095 0  0.04613417973165101 0.4978670881475172 0  -0.04613417973165095 0.4978670881475173 0  -0.1368314950360414 0.4809128215864095 0  -0.2228691778882689 0.4475816456775313 0  -0.3013173181896281 0.3990086136401198 0  -0.3695044586103297 0.3368478218232785 0  -0.425108567864807 0.263216081438678 0  -0.4662361147021779 0.1806208330935767 0  -0.4914865498419509 0.09187475890828518 0  -0.9989008914857115 0.04687226246993986 0  -0.9989008914857115 -0.04687226246994006 0  -0.9901225145346509 -0.1402048722818856 0  -0.972642905324813 -0.2323053566349833 0  -0.9466156752904342 -0.3223643331611536 0  -0.912269552664897 -0.4095903603365061 0  -0.8699063724087903 -0.4932168926979072 0  -0.8198984236734248 -0.5725090172720717 0  -0.7626851781103823 -0.6467699120171984 0  -0.6987694277788414 -0.7153469695201277 0  -0.6287128665908849 -0.777637532133752 0  -0.5531311541252 -0.8330941881540912 0  -0.4726885051885656 -0.8812295824940283 0  -0.3880918526722498 -0.9216206995773374 0  -0.3000846350003406 -0.953912580814779 0  -0.2094402627661449 -0.977821443992945 0  -0.1169553219720827 -0.9931371771625541 0  -0.02344257360326047 -0.9997251851098159 0  0.07027618894529231 -0.9975275721840101 0  0.1633773618185306 -0.9865636510865464 0  0.2550427685616762 -0.9669297731502506 0  0.3444668502843321 -0.9387984816003867 0  0.4308637449409707 -0.9024169952385882 0  0.5134741935148417 -0.8581050358751444 0  0.5915722124135216 -0.8062520186022304 0  0.6644714734388218 -0.747313629600077 0  0.7315313352636686 -0.6818078215504381 0  0.7921624734111292 -0.6103102618497922 0  0.8458320592590973 -0.5334492736235703 0  0.8920684425573863 -0.4519003139999344 0  0.9304652963070865 -0.3663800381682465 0  0.9606851875768402 -0.2776400013875007 0  0.982462542875576 -0.1864600542916819 0  0.9956059820218981 -0.09364148953435038 0  1 0 0  0.9956059820218981 0.09364148953435077 0  0.9824625428755761 0.1864600542916812 0  0.9606851875768402 0.2776400013875006 0  0.9304652963070866 0.3663800381682462 0  0.8920684425573865 0.4519003139999338 0  0.8458320592590974 0.5334492736235703 0  0.7921624734111293 0.6103102618497921 0  0.731531335263669 0.6818078215504377 0  0.6644714734388217 0.7473136296000771 0  0.5915722124135224 0.8062520186022298 0  0.5134741935148421 0.8581050358751442 0  0.4308637449409705 0.9024169952385883 0  0.3444668502843328 0.9387984816003864 0  0.2550427685616765 0.9669297731502506 0  0.1633773618185302 0.9865636510865465 0  0.070276188945293 0.9975275721840101 0  -0.02344257360326044 0.9997251851098159 0  -0.1169553219720825 0.9931371771625542 0  -0.2094402627661442 0.9778214439929452 0  -0.3000846350003405 0.953912580814779 0  -0.3880918526722498 0.9216206995773374 0  -0.472688505188565 0.8812295824940286 0  -0.5531311541251994 0.8330941881540915 0  -0.6287128665908847 0.7776375321337522 0  -0.6987694277788417 0.7153469695201276 0  -0.7626851781103822 0.6467699120171985 0  -0.8198984236734244 0.5725090172720723 0  -0.8699063724087902 0.4932168926979075 0  -0.9122695526648968 0.4095903603365063 0  -0.9466156752904341 0.3223643331611538 0  -0.972642905324813 0.2323053566349835 0  -0.9901225145346509 0.1402048722818858 0  -1.1 1.1 0  -1.1 -1.1 0  1.1 -1.1 0  1.1 1.1 0  -1.1 0 0  0 -1.1 0  1.1 0 0  0 1.1 0  -1.1 -0.55 0  -1.1 0.55 0  0.55 -1.1 0  -0.55 -1.1 0  1.1 0.55 0  1.1 -0.55 0  -0.55 1.1 0  0.55 1.1 0  -1.1 -0.275 0  -1.1 0.275 0  0.275 -1.1 0  -0.275 -1.1 0  1.1 0.275 0  1.1 -0.275 0  -0.275 1.1 0  0.275 1.1 0  -1.1 -0.1375 0  -1.1 0.1375 0  0.1375 -1.1 0  -0.1375 -1.1 0  1.1 0.1375 0  1.1 -0.1375 0  -0.1375 1.1 0  0.1375 1.1 0  5.551115123125783e-17 0 0  1.1 0.8250000000000001 0  1.1 -0.8250000000000001 0  -0.8250000000000001 1.1 0  -0.8250000000000001 -1.1 0  -1.1 -0.8250000000000001 0  -1.1 0.8250000000000001 0  0.8250000000000001 -1.1 0  0.8250000000000001 1.1 0  -0.7452577130899811 0.07009504121197063 0  -0.7196145554063145 -0.2047479939110959 0  -0.6695870000800466 0.3334147091903505 0  -0.5967944603467291 -0.4506782564455942 0  -0.5037216596475655 0.5525563387374935 0  -0.3935412594153844 -0.6355909573281985 0  -0.2582020584797643 0.7036952909889966 0  -0.1224874465599003 -0.7396475322243659 0  1.804112415015879e-16 0.7472231737812758 0  0.1372852503520671 -0.7344112228591781 0  0.2911232306082124 0.6913445711599195 0  0.3932371367102588 -0.6350997822946517 0  0.5243503582032214 0.5367899979536359 0  0.5960259246062833 -0.4500978851946297 0  0.6847673336854203 0.3074465196515291 0  0.7183173129809632 -0.2043788966183693 0  0.7449256117842845 0.06204953239509305 0  -0.20035900300458 0.1513040956928792 0  -0.1321718625838789 -0.2134648875097201 0  0.1321718625838787 0.2134648875097203 0  0.1691454556057493 -0.1855437261303996 0  0.8703274951181128 0.8703274951181128 0  0.8537727593964153 -0.8740275859440739 0  0.2685886721097267 0.02488840569699225 0  -0.884556435066475 -0.8244315273435519 0  -0.8845564350664752 0.8244315273435516 0  -0.700580064659332 0.9548184980149617 0  -0.7005800646593325 -0.9548184980149612 0  -0.2980337216678105 -0.02761689135282146 0  -0.0549981651260624 0.2942141970944399 0  1.1 0.6875 0  0.9496207616733379 -0.7125799064602014 0  0.6875 -1.1 0  0.6875 1.1 0  -0.9625000000000001 1.1 0  -0.9625000000000001 -1.1 0  -1.1 -0.6875 0  -1.1 0.6875 0  2.081668171172169e-17 -0.3286953126985109 0  1.1 -0.9625000000000001 0  1.1 0.9625000000000001 0  -0.4285642961523128 0.7162057711357145 0  -0.2922226613044432 -0.776727428568197 0  0.174838450714037 0.8162746937229515 0  0.4617849541950493 0.6955138191869427 0  0.6845471893646073 0.4779975510912708 0  -0.8314184002977903 -0.07656163071707678 0  -0.8042940643706591 0.2324426440997535 0  -0.7469659197661445 -0.372041484500847 0  0.9435817685496533 0.6588731670051087 0  -0.6655841780668343 0.5027264603142332 0  -0.5616418371471765 -0.6162017817942277 0  -0.1378524463486731 0.8324299723484344 0  0.009440324071048431 -0.8383040935568646 0  0.6340216813999336 0.9549268270259341 0  0.6984391415215117 -0.9338903439767606 0  0.300664440564191 -0.7759990472259422 0  -1.1 -0.9625000000000001 0  -1.1 0.9625000000000001 0  0.9625000000000001 -1.1 0  0.9625000000000001 1.1 0  0.8255078551297768 0.1971637233367384 0  0.5931718080586599 -0.60724416156603 0  -0.964569560729961 0.61875 0  -0.9412184400777328 -0.675629987878325 0  0.01451466883707512 -0.1566382224930387 0  0.7445359644808093 -0.3707185760986815 0  -0.6496807851562796 -0.05960531119440617 0  -0.62683574040104 0.1785965340391935 0  -0.5834686517324597 -0.2905328669998186 0  -0.3401882519444225 0.5618906080620845 0  -0.5202412644899305 0.3927183715284568 0  -0.230469700834483 -0.6158690166206668 0  -0.439029499146694 -0.4815924191466816 0  0.1315973236401685 0.6465309847524076 0  -0.04929612731897073 0.1430325247211223 0  -0.1510628756856091 0.008271570971756887 0  0.2352800706632638 -0.6074862080268114 0  0.4388143211162365 -0.4814151137709591 0  0.5830621392046128 -0.290354993318151 0  0.8297887356081327 -0.08096868143845029 0  0.3167546236327295 -0.1265860605627834 0  0.2881011466407613 0.1826342016868564 0  -0.282843184752632 -0.2135932583519227 0  0.6472529330662994 -0.06273876808302634 0  -0.1187431011919023 0.6352194859156121 0  0.005630703506639467 -0.6493092616611125 0  0.3384713093165277 0.5466499340785792 0  0.5118553673379518 0.3865352308568081 0  0.6283965164136763 0.1635550987092959 0  -0.953685798793846 0.953685798793846 0  -0.89375 -0.9706384268651818 0  -0.6875 -1.1 0  0.4125 1.1 0  -0.6875 1.1 0  -0.4125 1.1 0  1.1 -0.4125 0  1.1 0.4125 0  0.4125 -1.1 0  -1.1 -0.4125 0  -1.1 0.4125 0  -0.4125 -1.1 0  1.1 -0.6875 0  0.1394115791193248 -0.04277964460399492 0  -0.3393513283955167 0.1110600808589604 0  -0.1930047892342392 0.3117134374691744 0  0.07927492778061024 0.3481510469172536 0  -0.1324701263156022 -0.3472242494295533 0  0.1439189409798292 -0.3272419854446572 0  0.7177822238787621 -0.5012045196611741 0  0.4845413164728957 -0.7297881373406302 0  0.9613904516514835 -0.9613904516514835 0  0.1835716722752551 -0.8570478058500863 0  0.02055237236693077 0.8764705026293684 0  -0.4210725768174081 -0.7622904223554584 0  -0.5511921771358804 0.6734406073486252 0  -0.6740102264683963 -0.5535712372257735 0  0.1021660343973917 0.08439258971470157 0  -0.7641327511364048 0.4203531262950583 0  -0.8282932755708275 -0.2728623792913848 0  -0.9854957873544363 0.7452945109297571 0  0.9722945504877303 -0.5512686332562167 0  -0.8708679406104808 0.04525295152524858 0  -0.3364219313405007 0.8047457289663124 0  -0.1870734116895495 -0.8510277858141307 0  0.8301367040255592 -0.2719899423920239 0  0.3741394004917264 0.7881775306901468 0  -0.8270615207685887 0.938295111785177 0  -0.7558474866591318 0.8308882058467112 0  0.6370644222528364 0.5962644341027006 0  0.7792401357821636 0.3928441213091871 0  0.8701243835998034 0.07
[...]
<PointData  Vectors="f_110"> 
<DataArray  type="Float64"  Name="f_110"  NumberOfComponents="3" format="ascii">1.5620608407583657e-02 3.9739118608989477e-03 0.0000000000000000e+00  -1.2488038338594723e-01 -1.1648188469699627e-01 0.0000000000000000e+00  -5.2298864766848620e-02 -2.0951633815711782e-01 0.0000000000000000e+00  -4.9103440730714938e-03 -3.1180421157642868e-01 0.0000000000000000e+00  9.6670139976246475e-02 -3.3911462631445016e-01 0.0000000000000000e+00  3.3372668813540807e-01 -2.3490648471739187e-01 0.0000000000000000e+00  4.0730001590859349e-01 -1.7615094922441835e-01 0.0000000000000000e+00  4.6651787574266845e-01 -1.0403204826085159e-01 0.0000000000000000e+00  4.8972007554555447e-01 -4.5326771674150772e-02 0.0000000000000000e+00  4.9811305054774591e-01 3.5960022047217446e-02 0.0000000000000000e+00  4.6654507169885234e-01 1.6716862599598598e-01 0.0000000000000000e+00  3.9622494200750952e-01 2.0053527037712499e-01 0.0000000000000000e+00  3.0189024908488438e-01 2.6111687824718777e-01 0.0000000000000000e+00  2.1626406537251314e-01 2.5460756253439260e-01 0.0000000000000000e+00  1.9545177592349866e-01 1.9878305908621002e-01 0.0000000000000000e+00  1.1907579289801311e-01 1.4984998245753761e-01 0.0000000000000000e+00  6.1760856891225714e-02 8.2883326515147640e-02 0.0000000000000000e+00  1.0458234032085238e-02 -2.0673417376668808e-04 0.0000000000000000e+00  3.5891564034418302e-02 -8.2935490277360954e-02 0.0000000000000000e+00  7.6611894091687402e-04 -1.8645540857631679e-01 0.0000000000000000e+00  1.1008258306474994e-01 -2.4291853646349426e-01 0.0000000000000000e+00  2.4582196833004485e-01 -2.2397777920370537e-01 0.0000000000000000e+00  2.9821380014558679e-01 -2.3775768650983936e-01 0.0000000000000000e+00  3.6467856545891275e-01 -2.2101279803704585e-01 0.0000000000000000e+00  4.3631891197588640e-01 -1.4010383271321547e-01 0.0000000000000000e+00  4.7652150672764731e-01 -5.8101546382722913e-02 0.0000000000000000e+00  5.0571443159806062e-01 3.9483266727972470e-02 0.0000000000000000e+00  4.4585871551259881e-01 1.7805869426294191e-01 0.0000000000000000e+00  3.9294732405829791e-01 2.0721341687598147e-01 0.0000000000000000e+00  3.0730881666391718e-01 2.1890646489565460e-01 0.0000000000000000e+00  2.5325961010011139e-01 2.6519932556465287e-01 0.0000000000000000e+00  1.2663706222162976e-01 1.9827086617630832e-01 0.0000000000000000e+00  2.2134761353518423e-01 1.3141503590377981e-01 0.0000000000000000e+00  6.8697198937076681e-02 5.4483880420594460e-02 0.0000000000000000e+00  -1.2697166301079563e-01 1.1599245226550967e-02 0.0000000000000000e+00  -1.2478769217422037e-01 -1.1003552729832434e-02 0.0000000000000000e+00  -1.2034262798215317e-01 -3.2258669321926656e-02 0.0000000000000000e+00  -1.1268682570785191e-01 -5.5624791647877397e-02 0.0000000000000000e+00  -9.8742610070330319e-02 -7.5893597910078686e-02 0.0000000000000000e+00  -8.2917364001639793e-02 -9.1740758658015925e-02 0.0000000000000000e+00  -6.4505400122599282e-02 -1.0550310056660381e-01 0.0000000000000000e+00  -4.3137403422573384e-02 -1.1610566748482880e-01 0.0000000000000000e+00  -2.0414316062108858e-02 -1.2462497125589603e-01 0.0000000000000000e+00  5.4312502719475499e-03 -1.2574512402609733e-01 0.0000000000000000e+00  2.1915112316090498e-02 -1.1974144451899200e-01 0.0000000000000000e+00  4.5566723268132533e-02 -1.1431614277716147e-01 0.0000000000000000e+00  6.8108695750790496e-02 -1.0245127301892061e-01 0.0000000000000000e+00  8.9529031367666573e-02 -9.1458348222739710e-02 0.0000000000000000e+00  1.0739125122715160e-01 -7.6007729224094864e-02 0.0000000000000000e+00  1.1295664384350738e-01 -5.0024141662739503e-02 0.0000000000000000e+00  1.1727912732896828e-01 -2.8781308047634974e-02 0.0000000000000000e+00  1.2010076053772409e-01 -7.3247213920592680e-03 0.0000000000000000e+00  1.2042859765808014e-01 1.9785208556221963e-02 0.0000000000000000e+00  1.2016244130494011e-01 4.2529320033053042e-02 0.0000000000000000e+00  1.0416479329948301e-01 5.9809352541694213e-02 0.0000000000000000e+00  9.1003975288607666e-02 8.0908022469967034e-02 0.0000000000000000e+00  7.2867345883160642e-02 9.7574491681916356e-02 0.0000000000000000e+00  5.4374418039412689e-02 1.0924817881041086e-01 0.0000000000000000e+00  3.6124225774389854e-02 1.1533268565645563e-01 0.0000000000000000e+00  1.3008178856655070e-02 1.2452353600603305e-01 0.0000000000000000e+00  -1.1358952364097469e-02 1.2232104643051563e-01 0.0000000000000000e+00  -3.1694520476381605e-02 1.2047807757405851e-01 0.0000000000000000e+00  -5.2787878276371047e-02 1.1239216273254476e-01 0.0000000000000000e+00  -7.4242275104032251e-02 9.8521789147850050e-02 0.0000000000000000e+00  -9.1591379352126231e-02 8.3651415470949009e-02 0.0000000000000000e+00  -1.0179888895889329e-01 6.6363083011564059e-02 0.0000000000000000e+00  -1.1646874094889087e-01 4.5628940420701328e-02 0.0000000000000000e+00  -1.2683855030678950e-01 2.0227042103707831e-02 0.0000000000000000e+00  -1.2595941251445650e-01 -1.1704320615947279e-03 0.0000000000000000e+00  -1.2110910842259559e-01 -2.3465260026119088e-02 0.0000000000000000e+00  -1.1676560238908666e-01 -4.5083489465776935e-02 0.0000000000000000e+00  -1.0731244931400366e-01 -6.6325825068400027e-02 0.0000000000000000e+00  -9.6041574622752549e-02 -8.3826437689694430e-02 0.0000000000000000e+00  -7.3408312941623949e-02 -9.7584903925663116e-02 0.0000000000000000e+00  -5.2713184663964664e-02 -1.0922053478188425e-01 0.0000000000000000e+00  -3.1435802998537841e-02 -1.2109650290840358e-01 0.0000000000000000e+00  -8.2386604618834777e-03 -1.2591294867904443e-01 0.0000000000000000e+00  1.4529264465396810e-02 -1.2093525365030977e-01 0.0000000000000000e+00  3.5686633139965666e-02 -1.1850356436034906e-01 0.0000000000000000e+00  5.5766513294295453e-02 -1.0831854017073915e-01 0.0000000000000000e+00  7.5588526051038177e-02 -9.7479090258410117e-02 0.0000000000000000e+00  9.3831981251040447e-02 -8.1200877535634736e-02 0.0000000000000000e+00  1.0605661651874214e-01 -6.1084666509046232e-02 0.0000000000000000e+00  1.1499861832927401e-01 -3.8282617098180177e-02 0.0000000000000000e+00  1.1907781664481566e-01 -1.6949832481166396e-02 0.0000000000000000e+00  1.2035708013670644e-01 2.4888683205611479e-03 0.0000000000000000e+00  1.1714418869144076e-01 2.6666472634739768e-02 0.0000000000000000e+00  1.1107844308342074e-01 5.1003520475124769e-02 0.0000000000000000e+00  1.0122027408894993e-01 7.3865407947100656e-02 0.0000000000000000e+00  9.3643866386356842e-02 9.0841902786696710e-02 0.0000000000000000e+00  7.5218725349516430e-02 1.0581177155074778e-01 0.0000000000000000e+00  5.0588709442473505e-02 1.1356121782508956e-01 0.0000000000000000e+00  2.2750231250590589e-02 1.1761087829634226e-01 0.0000000000000000e+00  4.1922216667352350e-03 1.2245573703929116e-01 0.0000000000000000e+00  -2.2281128410422825e-02 1.2535298758504049e-01 0.0000000000000000e+00  -4.2060773056854836e-02 1.1914385547189234e-01 0.0000000000000000e+00  -6.2789234015919321e-02 1.0591305825725175e-01 0.0000000000000000e+00  -8.2379459433075369e-02 9.2656821312203430e-02 0.0000000000000000e+00  -9.8822123024823821e-02 7.5237957835536315e-02 0.0000000000000000e+00  -1.1074791965619077e-01 5.5006319488181125e-02 0.0000000000000000e+00  -1.2068206022988329e-01 3.5678786268793797e-02 0.0000000000000000e+00  1.0519458910089924e-03 5.3378423313121710e-02 0.0000000000000000e+00  6.7726407885490298e-04 -5.3181741553809926e-02 0.0000000000000000e+00  2.7032093926922436e-03 5.1228499567596598e-02 0.0000000000000000e+00  5.3293192714219055e-04 -5.3305056322995634e-02 0.0000000000000000e+00  -1.0673787375114600e-01 -1.1383938822180342e-05 0.0000000000000000e+00  1.0390831812680702e-01 -1.3797913909317653e-03 0.0000000000000000e+00  -1.0735824872699554e-01 -5.5209712855973044e-04 0.0000000000000000e+00  1.0472457727576495e-01 -3.0161722419270738e-04 0.0000000000000000e+00  -5.0970032116077993e-02 -6.5991399941015397e-02 0.0000000000000000e+00  -5.0011630220445483e-02 6.4971585199039533e-02 0.0000000000000000e+00  5.0215769311648069e-02 6.9776439375889288e-02 0.0000000000000000e+00  4.8624779225005479e-02 -7.1171515708644578e-02 0.0000000000000000e+00  -5.0066531990194979e-02 -6.6439797451966542e-02 0.0000000000000000e+00  -5.0377084077560891e-02 6.6165354655374195e-02 0.0000000000000000e+00  4.7831076606224036e-02 6.9718677724586314e-02 0.0000000000000000e+00  4.8893656580709391e-02 -6.8113146803489899e-02 0.0000000000000000e+00  -9.0738470692598605e-02 -4.4207999096897897e-02 0.0000000000000000e+00  -8.8599862697785581e-02 4.2114229143942750e-02 0.0000000000000000e+00  8.5648344117767061e-02 4.8086199557642546e-02 0.0000000000000000e+00  8.7373479909724480e-02 -4.8705807655372392e-02 0.0000000000000000e+00  -9.1524792221276810e-02 -4.5662529570195225e-02 0.0000000000000000e+00  -9.0802510280399623e-02 4.6367659985871085e-02 0.0000000000000000e+00  8.7004110110042512e-02 4.8895791430976089e-02 0.0000000000000000e+00  8.7776344832085060e-02 -4.6508846863648493e-02 0.0000000000000000e+00  -1.0317510130079952e-01 -2.5316282947577963e-02 0.0000000000000000e+00  -1.0342665997373190e-01 2.5260168501990359e-02 0.0000000000000000e+00  9.9152908258204581e-02 2.7008457667256781e-02 0.0000000000000000e+00  9.8577195737490256e-02 -2.7717813562707683e-02 0.0000000000000000e+00  -1.0167367025507897e-01 -2.4411298198724316e-02 0.0000000000000000e+00  -1.0312374444834141e-01 2.4942389604899431e-02 0.0000000000000000e+00  9.8736106989595965e-02 2.7450079155230581e-02 0.0000000000000000e+00  9.8143126756494614e-02 -2.6180527956039680e-02 0.0000000000000000e+00  4.9997924196671162e-01 5.9759682529093806e-07 0.0000000000000000e+00  -1.8138990685408158e-02 -6.2637112110407026e-02 0.0000000000000000e+00  -1.6057179979439822e-02 6.0635766918196402e-02 0.0000000000000000e+00  1.8073453941417770e-02 6.5362932505114615e-02 0.0000000000000000e+00  1.9323735216809641e-02 -6.4139732446103076e-02 0.0000000000000000e+00  -1.7364912665479796e-02 -6.4366464970535220e-02 0.0000000000000000e+00  -1.8061555085552308e-02 6.2763510433962014e-02 0.0000000000000000e+00  1.8259082074701206e-02 6.6118379170048702e-02 0.0000000000000000e+00  1.8030968019826989e-02 -6.6207701970137617e-02 0.0000000000000000e+00  -2.1333824498133444e-01 5.0004416272048179e-02 0.0000000000000000e+00  -1.8524215929268370e-01 -1.1626349983282533e-01 0.0000000000000000e+00  -1.2807604450184010e-01 1.7964018242127824e-01 0.0000000000000000e+00  -5.6621576612897531e-02 -2.1633939473723660e-01 0.0000000000000000e+00  2.3791227489949007e-02 2.2094913447918374e-01 0.0000000000000000e+00  9.8606138633586665e-02 -1.9546246881103704e-01 0.0000000000000000e+00  1.7146944926037641e-01 1.4599270913711748e-01 0.0000000000000000e+00  2.2175636430864942e-01 -7.6605808754377461e-02 0.0000000000000000e+00  2.4374293859093654e-01 -6.9940814172479143e-03 0.0000000000000000e+00  2.0150364602684143e-01 7.7451634710431858e-02 0.0000000000000000e+00  1.5154841198330579e-01 -1.5732091853003999e-01 0.0000000000000000e+00  1.0512801671881904e-01 1.9637828502202817e-01 0.0000000000000000e+00  8.9377398415502289e-03 -2.2378263248434790e-01 0.0000000000000000e+00  -6.1620716930773423e-02 2.1530997991831494e-01 0.0000000000000000e+00  -1.4704580982868323e-01 -1.6700279851383693e-01 0.0000000000000000e+00  -1.9075278410711338e-01 1.1407471535873961e-01 0.0000000000000000e+00  -2.1227529847792964e-01 -3.5922323549759695e-02 0.0000000000000000e+00  4.9856365930655938e-01 7.2599070380830529e-04 0.0000000000000000e+00  4.9973013393118781e-01 -4.2654081167174343e-04 0.0000000000000000e+00  4.9865380391059133e-01 -1.8516212959062207e-03 0.0000000000000000e+00  4.9786471565339091e-01 2.1802089478476097e-03 0.0000000000000000e+00  6.5416630014702656e-04 -8.2357843206272291e-02 0.0000000000000000e+00  1.8189635655016449e-03 8.1464007808401656e-02 0.0000000000000000e+00  4.9783882774576405e-01 -1.5423657045617422e-04 0.0000000000000000e+00  -5.8489955349886134e-03 -8.5364801079732960e-02 0.0000000000000000e+00  -4.9144408278096333e-03 8.4428193430928708e-02 0.0000000000000000e+00  2.5989978058148535e-02 8.5116810152578604e-02 0.0000000000000000e+00  2.7406260777673091e-02 -8.5220913428336001e-02 0.0000000000000000e+00  4.9830092254625313e-01 -1.6541913081085576e-04 0.0000000000000000e+00  4.9948303369355801e-01 4.0596842127021146e-04 0.0000000000000000e+00  -3.2647605524649258e-02 -6.6904306902044422e-02 0.0000000000000000e+00  -2.2600843700241468e-02 8.3766263084892975e-02 0.0000000000000000e+00  3.0781254905924350e-02 7.0830416622766929e-02 0.0000000000000000e+00  3.1132392907368241e-02 -6.8915731492929927e-02 0.0000000000000000e+00  7.9724883729073836e-03 5.9173704623543100e-02 0.0000000000000000e+00  7.6296308150933427e-03 -6.0176067248118748e-02 0.0000000000000000e+00  -3.0429921357082862e-02 -6.6450079631749814e-02 0.0000000000000000e+00  -3.2079332230538118e-02 6.7073291745750663e-02 0.0000000000000000e+00  4.9956431603636986e-01 2.2290825561047556e-04 0.0000000000000000e+00  -7.4746912610797380e-03 5.6919988490392100e-02 0.0000000000000000e+00  -6.1645412888183199e-03 -5.7453372030492077e-02 0.0000000000000000e+00  8.5316682790951351e-02 1.5535413100223416e-01 0.0000000000000000e+00  1.3989637919224998e-01 -1.2076328465938181e-01 0.0000000000000000e+00  1.6734438234688478e-01 -7.4350968117522370e-02 0.0000000000000000e+00  7.4137116944159878e-02 -1.6059690191465162e-01 0.0000000000000000e+00  -6.3798223175284219e-02 -1.6627480002466433e-01 0.0000000000000000e+00  -1.7589450178001759e-01 -3.2626038793986227e-02 0.0000000000000000e+00  -1.4721097324273080e-01 9.3192269749431733e-02 0.0000000000000000e+00  -1.0624195263858054e-01 -1.3940028535170537e-01 0.0000000000000000e+00  -3.2966283837463847e-02 -8.9670586301046254e-02 0.0000000000000000e+00  -4.7277173123308321e-02 1.6611381962307006e-01 0.0000000000000000e+00  1.9850363940023614e-02 -1.7778666014113739e-01 0.0000000000000000e+00  1.7030889921634007e-01 5.8679593043223101e-02 0.0000000000000000e+00  1.7908655679136895e-01 3.2989506312580854e-03 0.0000000000000000e+00  3.7422954112003262e-02 -8.8998460970593371e-02 0.0000000000000000e+00  2.6136235322550081e-02 9.0135718649276442e-02 0.0000000000000000e+00  1.3006743288192357e-01 1.2347315549057446e-01 0.0000000000000000e+00  -6.6725477699866847e-03 -5.7378400916124055e-02 0.0000000000000000e+00  -7.9296844441111066e-03 5.6889913927316321e-02 0.0000000000000000e+00  6.9449094470652017e-03 6.0468839023916698e-02 0.0000000000000000e+00  8.4843284627830872e-03 -5.9860228146034027e-02 0.0000000000000000e+00  -1.5475551714921848e-01 -7.8301942758330287e-02 0.0000000000000000e+00  4.0450268033874418e-03 1.7644457143021985e-01 0.0000000000000000e+00  -4.0509259772504115e-02 8.6917935534477159e-02 0.0000000000000000e+00  -3.0659682316214031e-02 -8.5903005799074533e-02 0.0000000000000000e+00  4.9994807841246852e-01 3.9631908716120982e-06 0.0000000000000000e+00  -1.1303446219048517e-01 1.4112508720955025e-01 0.0000000000000000e+00  -3.0594314993786298e-01 -4.0168360001031800e-02 0.0000000000000000e+00  -2.3829364664145689e-01 1.6211009826223502e-01 0.0000000000000000e+00  -1.4411876716234440e-01 -2.2284248901940928e-01 0.0000000000000000e+00  1.4504326864453665e-01 2.5500914070880920e-01 0.0000000000000000e+00  -4.9057384930377791e-02 2.7291381828976607e-01 0.0000000000000000e+00  2.2369515301163062e-01 -1.9613187411524882e-01 0.0000000000000000e+00  4.8607862197261480e-02 -2.8187008321952556e-01 0.0000000000000000e+00  2.8420946401857566e-01 -1.1908708409271246e-01 0.0000000000000000e+00  5.0002732464946775e-01 -2.8339729181825067e-05 0.0000000000000000e+00  4.9976423528132091e-01 6.9067131112079399e-06 0.0000000000000000e+00  2.3070238419296996e-01 1.7679159567308084e-01 0.0000000000000000e+00  2.4038216573724548e-02 2.8116816966680697e-01 0.0000000000000000e+00  -1.4259433675415506e-01 2.1865458030597126e-01 0.0000000000000000e+00  -1.8257516268601739e-01 2.9657115269915945e-02 0.0000000000000000e+00  5.1782665070591649e-01 -5.6553707766321369e-03 0.0000000000000000e+00  4.9633813223299456e-01 -3.3767202601871229e-03 0.0000000000000000e+00  5.0670196565657988e-01 7.7141990592900231e-03 0.0000000000000000e+00  -2.7038244658044303e-01 6.3658320848849079e-02 0.0000000000000000e+00  2.9281568262912266e-01 9.6838850326473158e-02 0.0000000000000000e+00  3.1014342743159479e-01 -6.6951597083902718e-03 0.0000000000000000e+00  1.5530333867697191e-01 -2.5805996163548156e-01 0.0000000000000000e+00  -5.1652557479145760e-02 -2.7996923654847755e-01 0.0000000000000000e+00  -2.5279214661766253e-01 -1.3755284477424309e-01 0.0000000000000000e+00  -8.7180238732570327e-04 6.8425174029801861e-02 0.0000000000000000e+00  5.3397107611310333e-03 -7.1610446022201402e-02 0.0000000000000000e+00  3.1452325345865888e-02 -6.8368847232520291e-02 0.0000000000000000e+00  6.9178237046629468e-02 -6.3614462174931649e-02 0.0000000000000000e+00  3.1856474039512986e-02 7.0207639523056004e-02 0.0000000000000000e+00  6.8185139310943610e-02 6.3201710590765514e-02 0.0000000000000000e+00  -6.9376809101918555e-02 5.8649573948021748e-02 0.0000000000000000e+00  -6.7039901636988058e-02 -5.8772849516667190e-02 0.0000000000000000e+00  6.5880293135852641e-02 6.3903269460169845e-02 0.0000000000000000e+00  -6.4417771917515687e-02 -5.8407547587899324e-02 0.0000000000000000e+00  -6.8646851835998238e-02 5.8287565225284110e-02 0.0000000000000000e+00  6.7625571929448056e-02 -6.4211484959230888e-02 0.0000000000000000e+00  -3.2597909178848694e-02 6.4913569336527296e-02 0.0000000000000000e+00  4.9980545873041371e-01 2.3625569442968407e-05 0.0000000000000000e+00  4.6819758389676480e-01 1.4229697580230334e-02 0.0000000000000000e+00  4.9988289094519256e-01 1.8798172811790930e-03 0.0000000000000000e+00  4.9784816395017928e-01 -6.3777295614391299e-03 0.0000000000000000e+00  4.9920315401311005e-01 -2.3531883358832995e-03 0.0000000000000000e+00  4.9798449784056026e-01 1.6858667577151546e-03 0.0000000000000000e+00  -5.9941793330512153e-02 1.5306328336159175e-01 0.0000000000000000e+00  6.7374309965795728e-02 1.5011170677236979e-01 0.0000000000000000e+00  -5.4716697236698952e-04 6.6211234400789090e-02 0.0000000000000000e+00  1.4877441007220332e-01 6.9884431823078491e-02 0.0000000000000000e+00  1.6702736459306264e-01 -8.2631399863401945e-03 0.0000000000000000e+00  8.7003694324073094e-02 -1.3640374897140403e-01 0.0000000000000000e+00  3.3419095050876639e-02 1.5984611556255521e-01 0.0000000000000000e+00  -3.0312670053017025e-02 -1.6137528779120885e-01 0.0000000000000000e+00  4.9997050380194041e-01 -4.1251652610191123e-05 0.0000000000000000e+00  -8.7975739350812709e-02 1.4029762029901782e-01 0.0000000000000000e+00  -1.3185954120669971e-01 -9.6279395197333875e-02 0.0000000000000000e+00  -2.1252392197351127e-02 7.8749288124300668e-02 0.0000000000000000e+00  -5.1434053698270824e-02 8.5415877097958379e-02 0.0000000000000000e+00  -1.6378180176563914e-01 1.9950775855339480e-02 0.0000000000000000e+00  1.1173723419493757e-01 1.1803318188463065e-01 0.0000000000000000e+00  1.4984915753616354e-01 -7.0869492873515821e-02 0.0000000000000000e+00  -1.3057637340050171e-01 9.4719881371591888e-02 0.0000000000000000e+00  1.0021711860466581e-01 -1.2949910289378422e-01 0.0000000000000000e+00  9.7564014619058344e-03 7.8924522257587421e-02 0.0000000000000000e+00  7.5838036823749917e-03 9.6797837496280653e-02 0.0000000000000000e+00  -1.4795876890459726e-02 -1.6178140699835472e-01 0.0000000000000000e+00  -1.0050015756548261e-01 -1.3090874116478690e-01 0.0000000000000000e+00  -1.6060815499367975e-01 -3.1865760229841354e-02 0.0000000000000000e+00  -6.7500844361041024e-03 -7.0405936240364994e-02 0.0000000000000000e+00  -1.6901129586708219e-01 -2.4456896748364432e-01 0.0000000000000000e+00  4.5966751190442667e-01 2.6091475541025876e-02 0.0000000000000000e+00  4.8353723549447192e-01 -1.4975594981801973e-02 0.0000000000000000e+00  4.5732296710566056e-01 3.2338360652066064e-02 0.0000000000000000e+00  1.6949090058900298e-02 -9.5461247687492021e-02 0.0000000000000000e+00  1.5271712532232562e-02 -7.805586551647