<?xml version="1.0"?>
<VTKFile type="UnstructuredGrid"  version="0.1"  >
<UnstructuredGrid>
<Piece  NumberOfPoints="1333" NumberOfCells="2365">
<Points>
<DataArray  type="Float64"  NumberOfComponents="3"  format="ascii">-0.4960573506572389 0.06266661678215227 0  -0.4960573506572389 -0.06266661678215214 0  -0.4648882429441257 -0.184062276342339 0  -0.4045084971874739 -0.2938926261462363 0  -0.3187119948743448 -0.3852566213878947 0  -0.2128896457825361 -0.4524135262330099 0  -0.09369065729286231 -0.4911436253643444 0  0.03139525976465642 -0.4990133642141358 0  0.1545084971874736 -0.4755282581475768 0  0.2679133974894984 -0.4221639627510075 0  0.3644843137107056 -0.3422735529643445 0  0.4381533400219316 -0.2408768370508581 0  0.4842915805643155 -0.1243449435824277 0  0.5 0 0  0.4842915805643155 0.1243449435824274 0  0.4381533400219318 0.2408768370508577 0  0.3644843137107058 0.3422735529643443 0  0.2679133974894983 0.4221639627510075 0  0.1545084971874737 0.4755282581475768 0  0.03139525976465676 0.4990133642141358 0  -0.0936906572928623 0.4911436253643444 0  -0.2128896457825364 0.4524135262330097 0  -0.3187119948743449 0.3852566213878946 0  -0.4045084971874737 0.2938926261462366 0  -0.4648882429441257 0.1840622763423391 0  -0.9979453927503363 0.06407021998071323 0  -0.9979453927503363 -0.06407021998071299 0  -0.9815591569910653 -0.1911586287013723 0  -0.9490557470106686 -0.3151082180236206 0  -0.9009688679024191 -0.433883739117558 0  -0.8380881048918408 -0.5455349012105485 0  -0.7614459583691346 -0.6482283953077882 0  -0.672300890261317 -0.7402779970753153 0  -0.57211666012217 -0.8201722545969556 0  -0.4625382902408353 -0.886599306373 0  -0.3453650544213073 -0.9384684220497606 0  -0.2225209339563146 -0.9749279121818236 0  -0.09602302590768157 -0.9953791129491982 0  0.03205157757165486 -0.9994862162006879 0  0.1595998950333784 -0.9871817834144503 0  0.284527586631032 -0.9586678530366608 0  0.4047833431223937 -0.9144126230158125 0  0.5183925683105245 -0.8551427630053464 0  0.6234898018587334 -0.7818314824680299 0  0.718349350097727 -0.6956825506034869 0  0.8014136218679559 -0.598110530491217 0  0.8713187041233894 -0.4907175520039379 0  0.9269167573460216 -0.3752670048793746 0  0.9672948630390293 -0.2536545839095075 0  0.9917900138232461 -0.1278771616845066 0  1 0 0  0.9917900138232462 0.127877161684506 0  0.9672948630390295 0.2536545839095073 0  0.9269167573460217 0.3752670048793741 0  0.8713187041233894 0.4907175520039379 0  0.8014136218679566 0.598110530491216 0  0.7183493500977276 0.6956825506034864 0  0.6234898018587336 0.7818314824680298 0  0.5183925683105252 0.8551427630053461 0  0.4047833431223938 0.9144126230158125 0  0.2845275866310324 0.9586678530366606 0  0.1595998950333795 0.9871817834144501 0  0.03205157757165533 0.9994862162006879 0  -0.09602302590768176 0.9953791129491982 0  -0.2225209339563143 0.9749279121818236 0  -0.3453650544213075 0.9384684220497604 0  -0.4625382902408351 0.8865993063730001 0  -0.5721166601221698 0.8201722545969558 0  -0.6723008902613169 0.7402779970753155 0  -0.7614459583691342 0.6482283953077888 0  -0.8380881048918406 0.5455349012105487 0  -0.900968867902419 0.4338837391175582 0  -0.9490557470106685 0.3151082180236213 0  -0.9815591569910653 0.1911586287013725 0  -1 1 0  -1 -1 0  1 -1 0  1 1 0  1 -0.512561759845706 0  1 0.5125617598457033 0  0 1 0  -1 0 0  0 -1 0  1 -0.2562808799228529 0  1 0.2562808799228516 0  -0.03198572416801321 0.9974326645749431 0  -0.5 1 0  0.5 1 0  -0.9979453927503363 1.179611963664229e-16 0  -1 0.5 0  -1 -0.5 0  -0.03198572416801335 -0.9974326645749431 0  -0.5 -1 0  0.5 -1 0  1 -0.1281404399614265 0  1 -0.3844213198842794 0  1 0.1281404399614258 0  1 0.3844213198842775 0  3.29267018210587e-05 0.9984594403878155 0  -0.25 1 0  0.25 1 0  -1 0.25 0  -1 -0.25 0  3.292670182075338e-05 -0.9984594403878155 0  -0.25 -1 0  0.25 -1 0  -0.2839429941888109 0.956698167115792 0  -0.125 1 0  -0.375 1 0  0.222063740832206 0.9729248182255553 0  0.125 1 0  0.375 1 0  -0.9653074520008669 0.2531334233624969 0  -1 0.125 0  -1 0.375 0  -0.965307452000867 -0.2531334233624964 0  -1 -0.125 0  -1 -0.375 0  -0.283942994188811 -0.9566981671157921 0  -0.125 -1 0  -0.375 -1 0  0.2220637408322052 -0.9729248182255555 0  0.125 -1 0  0.375 -1 0  -0.159271979931998 0.9851535125655109 0  -0.0625 1 0  -0.1875 1 0  -0.3125 1 0  0.09582573630251744 0.993333999807569 0  0.0625 1 0  0.1875 1 0  0.3125 1 0  -0.9897522748707008 0.1276144243410429 0  -1 0.0625 0  -1 0.1875 0  -1 0.3125 0  -0.9897522748707008 -0.1276144243410426 0  -1 -0.0625 0  -1 -0.1875 0  -1 -0.3125 0  -0.1592719799319981 -0.9851535125655109 0  -0.0625 -1 0  -0.1875 -1 0  -0.3125 -1 0  0.09582573630251663 -0.9933339998075691 0  0.0625 -1 0  0.1875 -1 0  0.3125 -1 0  -0.1276475029198399 0.9902663127573545 0  -0.06400437503784749 0.9964058887620706 0  -0.03125 1 0  -0.09375 1 0  -0.1908964569441562 0.9800407123736672 0  -0.21875 1 0  -0.15625 1 0  0.1277128156679485 0.9902578916110095 0  0.06393865693708639 0.9964101080041284 0  0.03125 1 0  0.09375 1 0  0.1908318179327927 0.9800533008200027 0  0.21875 1 0  0.15625 1 0  -0.9938488338105186 0.09584232216087807 0  -0.9979453927503363 0.03203510999035668 0  -1 0.09375 0  -0.9856557159308831 0.1593865265212077 0  -1 0.15625 0  -0.9938488338105186 -0.09584232216087782 0  -0.9979453927503363 -0.03203510999035644 0  -1 -0.09375 0  -0.9856557159308831 -0.1593865265212075 0  -1 -0.15625 0  -0.1276475029198398 -0.9902663127573545 0  -0.06400437503784746 -0.9964058887620706 0  -0.03125 -1 0  -0.09375 -1 0  -0.1908964569441563 -0.9800407123736672 0  -0.21875 -1 0  -0.15625 -1 0  0.1277128156679475 -0.9902578916110096 0  0.06393865693708575 -0.9964101080041285 0  0.03125 -1 0  0.09375 -1 0  0.1908318179327918 -0.980053300820003 0  0.21875 -1 0  0.15625 -1 0  -0.1118352644137608 0.9928227128532764 0  -0.04799504960293036 0.9969192766685069 0  -0.01597639873309608 0.9979460524813792 0  -0.046875 1 0  -0.08001370047276463 0.9958925008556344 0  -0.109375 1 0  -0.078125 1 0  0.111769275985233 0.9917959457092893 0  0.04799511725437086 0.9979481621024082 0  0.0160422521367382 0.9989728282942517 0  0.046875 1 0  0.07988219661980192 0.9948720539058487 0  0.109375 1 0  0.078125 1 0  -0.9918005543406097 0.1117283732509605 0  -1 0.03125 0  -0.9979453927503363 0.04805266498553495 0  -0.9958971132804275 0.07995627107079564 0  -1 0.109375 0  -1 0.078125 0  -0.9918005543406097 -0.1117283732509602 0  -1 -0.03125 0  -0.9979453927503363 -0.04805266498553472 0  -0.9958971132804275 -0.07995627107079541 0  -1 -0.109375 0  -1 -0.078125 0  -0.1118352644137607 -0.9928227128532764 0  -0.04799504960293041 -0.9969192766685069 0  -0.0159763987330963 -0.9979460524813792 0  -0.046875 -1 0  -0.08001370047276452 -0.9958925008556344 0  -0.109375 -1 0  -0.078125 -1 0  0.1117692759852321 -0.9917959457092893 0  0.04799511725437031 -0.9979481621024082 0  0.01604225213673781 -0.9989728282942517 0  0.046875 -1 0  0.0798821966198012 -0.9948720539058489 0  0.109375 -1 0  0.078125 -1 0  -0.05599971232038892 0.9966625827152887 0  -0.015625 1 0  -0.02398106145055465 0.9976893585281612 0  -0.03999038688547178 0.9971759706217249 0  -0.0546875 1 0  -0.0390625 1 0  -0.08801836319022319 0.9956358069024163 0  -0.1015625 1 0  -0.07200903775530607 0.9961491948088526 0  -0.0703125 1 0  -0.0859375 1 0  0.05596688709572863 0.9971791350532684 0  0.015625 1 0  0.02404691485419676 0.9992295222474699 0  0.0400233474130131 0.9987171891515481 0  0.0546875 1 0  0.0390625 1 0  0.07191042677844416 0.9956410809549885 0  0.0703125 1 0  -0.9979453927503363 0.0160175549951784 0  -1 0.046875 0  -0.9979453927503363 0.05606144248312409 0  -0.9948729735454731 0.08789929661583686 0  -0.9969212530153819 0.07201324552575444 0  -1 0.0703125 0  -1 0.0859375 0  -0.9979453927503363 -0.01601755499517816 0  -1 -0.046875 0  -0.9979453927503363 -0.05606144248312386 0  -0.9948729735454731 -0.08789929661583662 0  -0.9969212530153819 -0.07201324552575419 0  -1 -0.0703125 0  -1 -0.0859375 0  -0.05599971232038894 -0.9966625827152887 0  -0.015625 -1 0  -0.02398106145055483 -0.9976893585281612 0  -0.03999038688547188 -0.9971759706217249 0  -0.0546875 -1 0  -0.0390625 -1 0  -0.08801836319022305 -0.9956358069024163 0  -0.1015625 -1 0  -0.07200903775530598 -0.9961491948088526 0  -0.0703125 -1 0  -0.0859375 -1 0  0.05596688709572803 -0.9971791350532684 0  0.015625 -1 0  0.02404691485419633 -0.9992295222474699 0  0.04002334741301258 -0.9987171891515481 0  0.0546875 -1 0  0.0390625 -1 0  0.07191042677844348 -0.9956410809549887 0  0.0703125 -1 0  -0.00797173601563751 0.9982027464345974 0  -0.0234375 1 0  -0.1039291451607213 0.9941009129012373 0  0.008037589419279628 0.9987161343410336 0  0.0234375 1 0  0.02804924621292605 0.9993578692240789 0  0.04400923233369198 0.9983326756269781 0  0.05198100217504974 0.9975636485778383 0  0.05859375 1 0  0.05078125 1 0  0.03603746249233421 0.999101702676118 0  0.03515625 1 0  0.04296875 1 0  -1 0.015625 0  -0.9979453927503363 0.02402633249276754 0  -0.9979453927503363 0.04004388748794582 0  -1 0.0546875 0  -1 0.0390625 0  -0.9979453927503363 0.06006583123191866 0  -0.9974333228828591 0.06804173275323383 0  -1 0.06640625 0  -1 0.07421875 0  -1 -0.015625 0  -0.9979453927503363 -0.0240263324927673 0  -0.9979453927503363 -0.04004388748794558 0  -1 -0.0546875 0  -1 -0.0390625 0  -0.9979453927503363 -0.06006583123191843 0  -0.9974333228828591 -0.06804173275323359 0  -1 -0.06640625 0  -1 -0.07421875 0  -0.007971736015637774 -0.9982027464345974 0  -0.0234375 -1 0  -0.1039291451607211 -0.9941009129012373 0  0.008037589419279281 -0.9987161343410336 0  0.0234375 -1 0  0.0280492462129256 -0.9993578692240789 0  0.04400923233369144 -0.9983326756269781 0  0.05198100217504917 -0.9975636485778383 0  0.05859375 -1 0  0.05078125 -1 0  0.03603746249233372 -0.999101702676118 0  0.03515625 -1 0  0.04296875 -1 0  -0.0078125 1 0  0.0078125 1 0  0.01203992077800891 0.9988444813176427 0  0.02004458349546748 0.9991011752708607 0  0.02734375 1 0  0.01953125 1 0  0.03005041189
[...]
<PointData  Vectors="f_59"> 
<DataArray  type="Float64"  Name="f_59"  NumberOfComponents="3" format="ascii">-4.0600620957253475e-02 2.1355424604916770e-01 0.0000000000000000e+00  1.1186277920221893e-02 1.9638126946171924e-01 0.0000000000000000e+00  6.2270301815717272e-02 1.6686893547420326e-01 0.0000000000000000e+00  1.0944165363398081e-01 1.2687161256982765e-01 0.0000000000000000e+00  1.4973638385617463e-01 7.8902479646537668e-02 0.0000000000000000e+00  1.8062262638878668e-01 2.5975613744034370e-02 0.0000000000000000e+00  2.0015968502183859e-01 -2.8583395501631248e-02 0.0000000000000000e+00  2.0711997450914044e-01 -8.1346404885554113e-02 0.0000000000000000e+00  2.0106615426405111e-01 -1.2899812047936809e-01 0.0000000000000000e+00  1.8237860807696255e-01 -1.6854440974156248e-01 0.0000000000000000e+00  1.5223154320279739e-01 -1.9750043387671568e-01 0.0000000000000000e+00  1.1251921060074786e-01 -2.1404677939560823e-01 0.0000000000000000e+00  6.5736882179943557e-02 -2.1714377855608635e-01 0.0000000000000000e+00  1.4824063688432393e-02 -2.0659683551093097e-01 0.0000000000000000e+00  -3.7020205243715493e-02 -1.8306865348061235e-01 0.0000000000000000e+00  -8.6538358529609782e-02 -1.4803759467269595e-01 0.0000000000000000e+00  -1.3061898848326903e-01 -1.0370478934730534e-01 0.0000000000000000e+00  -1.6649234700748816e-01 -5.2855830707687623e-02 0.0000000000000000e+00  -1.9190437905320665e-01 1.3142541654413420e-03 0.0000000000000000e+00  -2.0525835318807584e-01 5.5401759615867352e-02 0.0000000000000000e+00  -2.0571519010472045e-01 1.0600816875620905e-01 0.0000000000000000e+00  -1.9324618505953889e-01 1.4995369478282550e-01 0.0000000000000000e+00  -1.6863481149731299e-01 1.8447707867512492e-01 0.0000000000000000e+00  -1.3342749253325747e-01 2.0740908925502999e-01 0.0000000000000000e+00  -8.9836433501345764e-02 2.1730882395976953e-01 0.0000000000000000e+00  3.8745295384608319e-01 7.2795186433306192e-01 0.0000000000000000e+00  2.9118355219700753e-01 7.7152177361366037e-01 0.0000000000000000e+00  1.9013292467106119e-01 8.0242331670139311e-01 0.0000000000000000e+00  8.5960319778524474e-02 8.2014909111307877e-01 0.0000000000000000e+00  0.0000000000000000e+00 0.0000000000000000e+00 0.0000000000000000e+00  0.0000000000000000e+00 0.0000000000000000e+00 0.0000000000000000e+00  -2.2809683210700893e-01 7.9246800781658222e-01 0.0000000000000000e+00  -3.2756271983380841e-01 7.5679348094781673e-01 0.0000000000000000e+00  0.0000000000000000e+00 0.0000000000000000e+00 0.0000000000000000e+00  0.0000000000000000e+00 0.0000000000000000e+00 0.0000000000000000e+00  -5.8762299700332044e-01 5.7856107855858330e-01 0.0000000000000000e+00  -6.5678336890797839e-01 4.9866753910388234e-01 0.0000000000000000e+00  -7.1515937605292401e-01 4.1058589244350319e-01 0.0000000000000000e+00  -7.6179248601472860e-01 3.1576243678046212e-01 0.0000000000000000e+00  -7.9591698441706127e-01 2.1575417063520957e-01 0.0000000000000000e+00  -8.1697254793957885e-01 1.1220322697297214e-01 0.0000000000000000e+00  0.0000000000000000e+00 0.0000000000000000e+00 0.0000000000000000e+00  -8.1871421171699477e-01 -9.8695226645745537e-02 0.0000000000000000e+00  -7.9937171390081951e-01 -2.0257978982440983e-01 0.0000000000000000e+00  0.0000000000000000e+00 0.0000000000000000e+00 0.0000000000000000e+00  -7.2184286021858179e-01 -3.9871868953121925e-01 0.0000000000000000e+00  0.0000000000000000e+00 0.0000000000000000e+00 0.0000000000000000e+00  0.0000000000000000e+00 0.0000000000000000e+00 0.0000000000000000e+00  0.0000000000000000e+00 0.0000000000000000e+00 0.0000000000000000e+00  0.0000000000000000e+00 0.0000000000000000e+00 0.0000000000000000e+00  -3.4001685411501781e-01 -7.5128040514029271e-01 0.0000000000000000e+00  -2.4115371460434387e-01 -7.8859279362834811e-01 0.0000000000000000e+00  0.0000000000000000e+00 0.0000000000000000e+00 0.0000000000000000e+00  0.0000000000000000e+00 0.0000000000000000e+00 0.0000000000000000e+00  7.2403436571362167e-02 -8.2145690733153642e-01 0.0000000000000000e+00  0.0000000000000000e+00 0.0000000000000000e+00 0.0000000000000000e+00  2.7840178229062257e-01 -7.7622558309259582e-01 0.0000000000000000e+00  3.7537763189921475e-01 -7.3425155205813031e-01 0.0000000000000000e+00  4.6618979116989651e-01 -6.8022113083835012e-01 0.0000000000000000e+00  5.4934712695808119e-01 -6.1502149745593238e-01 0.0000000000000000e+00  0.0000000000000000e+00 0.0000000000000000e+00 0.0000000000000000e+00  6.8738367596438787e-01 -4.5556271823725975e-01 0.0000000000000000e+00  7.3999633286405331e-01 -3.6392188114729923e-01 0.0000000000000000e+00  7.8045827043639360e-01 -2.6630545683006335e-01 0.0000000000000000e+00  8.0810510478510178e-01 -1.6431630427408986e-01 0.0000000000000000e+00  0.0000000000000000e+00 0.0000000000000000e+00 0.0000000000000000e+00  8.2335550044443784e-01 4.6037247071528564e-02 0.0000000000000000e+00  8.1070865067995901e-01 1.5094764636361657e-01 0.0000000000000000e+00  0.0000000000000000e+00 0.0000000000000000e+00 0.0000000000000000e+00  0.0000000000000000e+00 0.0000000000000000e+00 0.0000000000000000e+00  6.9481376249617122e-01 4.4414811006684429e-01 0.0000000000000000e+00  0.0000000000000000e+00 0.0000000000000000e+00 0.0000000000000000e+00  5.5942957917816760e-01 6.0586488111671732e-01 0.0000000000000000e+00  4.7736038870472086e-01 6.7242900556543028e-01 0.0000000000000000e+00  0.0000000000000000e+00 0.0000000000000000e+00 0.0000000000000000e+00  0.0000000000000000e+00 0.0000000000000000e+00 0.0000000000000000e+00  0.0000000000000000e+00 0.0000000000000000e+00 0.0000000000000000e+00  0.0000000000000000e+00 0.0000000000000000e+00 0.0000000000000000e+00  0.0000000000000000e+00 0.0000000000000000e+00 0.0000000000000000e+00  0.0000000000000000e+00 0.0000000000000000e+00 0.0000000000000000e+00  0.0000000000000000e+00 0.0000000000000000e+00 0.0000000000000000e+00  0.0000000000000000e+00 0.0000000000000000e+00 0.0000000000000000e+00  0.0000000000000000e+00 0.0000000000000000e+00 0.0000000000000000e+00  0.0000000000000000e+00 0.0000000000000000e+00 0.0000000000000000e+00  0.0000000000000000e+00 0.0000000000000000e+00 0.0000000000000000e+00  0.0000000000000000e+00 0.0000000000000000e+00 0.0000000000000000e+00  0.0000000000000000e+00 0.0000000000000000e+00 0.0000000000000000e+00  0.0000000000000000e+00 0.0000000000000000e+00 0.0000000000000000e+00  3.3780234133530701e-01 7.4835040246957463e-01 0.0000000000000000e+00  0.0000000000000000e+00 0.0000000000000000e+00 0.0000000000000000e+00  0.0000000000000000e+00 0.0000000000000000e+00 0.0000000000000000e+00  0.0000000000000000e+00 0.0000000000000000e+00 0.0000000000000000e+00  0.0000000000000000e+00 0.0000000000000000e+00 0.0000000000000000e+00  0.0000000000000000e+00 0.0000000000000000e+00 0.0000000000000000e+00  0.0000000000000000e+00 0.0000000000000000e+00 0.0000000000000000e+00  0.0000000000000000e+00 0.0000000000000000e+00 0.0000000000000000e+00  0.0000000000000000e+00 0.0000000000000000e+00 0.0000000000000000e+00  0.0000000000000000e+00 0.0000000000000000e+00 0.0000000000000000e+00  7.4652949990854012e-01 -3.3805020268361419e-01 0.0000000000000000e+00  0.0000000000000000e+00 0.0000000000000000e+00 0.0000000000000000e+00  0.0000000000000000e+00 0.0000000000000000e+00 0.0000000000000000e+00  0.0000000000000000e+00 0.0000000000000000e+00 0.0000000000000000e+00  0.0000000000000000e+00 0.0000000000000000e+00 0.0000000000000000e+00  -7.4655181616987187e-01 3.3800079691036022e-01 0.0000000000000000e+00  0.0000000000000000e+00 0.0000000000000000e+00 0.0000000000000000e+00  0.0000000000000000e+00 0.0000000000000000e+00 0.0000000000000000e+00  8.1028480023251981e-01 -1.1049180841361150e-01 0.0000000000000000e+00  0.0000000000000000e+00 0.0000000000000000e+00 0.0000000000000000e+00  0.0000000000000000e+00 0.0000000000000000e+00 0.0000000000000000e+00  6.5111574210492040e-01 -4.9542729958709175e-01 0.0000000000000000e+00  0.0000000000000000e+00 0.0000000000000000e+00 0.0000000000000000e+00  0.0000000000000000e+00 0.0000000000000000e+00 0.0000000000000000e+00  5.1571738825315683e-01 6.3830207223192503e-01 0.0000000000000000e+00  0.0000000000000000e+00 0.0000000000000000e+00 0.0000000000000000e+00  0.0000000000000000e+00 0.0000000000000000e+00 0.0000000000000000e+00  1.3779155073924193e-01 8.0944892789209411e-01 0.0000000000000000e+00  0.0000000000000000e+00 0.0000000000000000e+00 0.0000000000000000e+00  0.0000000000000000e+00 0.0000000000000000e+00 0.0000000000000000e+00  -6.1805663035562586e-01 5.3634447635167148e-01 0.0000000000000000e+00  0.0000000000000000e+00 0.0000000000000000e+00 0.0000000000000000e+00  0.0000000000000000e+00 0.0000000000000000e+00 0.0000000000000000e+00  -8.0145192707804469e-01 1.6238003861886510e-01 0.0000000000000000e+00  0.0000000000000000e+00 0.0000000000000000e+00 0.0000000000000000e+00  0.0000000000000000e+00 0.0000000000000000e+00 0.0000000000000000e+00  7.8932571604430668e-01 -2.1360101441502363e-01 0.0000000000000000e+00  0.0000000000000000e+00 0.0000000000000000e+00 0.0000000000000000e+00  0.0000000000000000e+00 0.0000000000000000e+00 0.0000000000000000e+00  0.0000000000000000e+00 0.0000000000000000e+00 0.0000000000000000e+00  7.0908239038607646e-01 -4.0766199799439795e-01 0.0000000000000000e+00  0.0000000000000000e+00 0.0000000000000000e+00 0.0000000000000000e+00  0.0000000000000000e+00 0.0000000000000000e+00 0.0000000000000000e+00  0.0000000000000000e+00 0.0000000000000000e+00 0.0000000000000000e+00  0.0000000000000000e+00 0.0000000000000000e+00 0.0000000000000000e+00  0.0000000000000000e+00 0.0000000000000000e+00 0.0000000000000000e+00  0.0000000000000000e+00 0.0000000000000000e+00 0.0000000000000000e+00  0.0000000000000000e+00 0.0000000000000000e+00 0.0000000000000000e+00  2.3976541679482349e-01 7.8534735611851769e-01 0.0000000000000000e+00  0.0000000000000000e+00 0.0000000000000000e+00 0.0000000000000000e+00  0.0000000000000000e+00 0.0000000000000000e+00 0.0000000000000000e+00  0.0000000000000000e+00 0.0000000000000000e+00 0.0000000000000000e+00  -6.8149927960601719e-01 4.5247430577968600e-01 0.0000000000000000e+00  0.0000000000000000e+00 0.0000000000000000e+00 0.0000000000000000e+00  0.0000000000000000e+00 0.0000000000000000e+00 0.0000000000000000e+00  0.0000000000000000e+00 0.0000000000000000e+00 0.0000000000000000e+00  0.0000000000000000e+00 0.0000000000000000e+00 0.0000000000000000e+00  0.0000000000000000e+00 0.0000000000000000e+00 0.0000000000000000e+00  0.0000000000000000e+00 0.0000000000000000e+00 0.0000000000000000e+00  0.0000000000000000e+00 0.0000000000000000e+00 0.0000000000000000e+00  7.8367163200708911e-01 -2.3948564139527007e-01 0.0000000000000000e+00  7.6669489929534185e-01 -2.8931171554758883e-01 0.0000000000000000e+00  0.0000000000000000e+00 0.0000000000000000e+00 0.0000000000000000e+00  0.0000000000000000e+00 0.0000000000000000e+00 0.0000000000000000e+00  7.9745969804378147e-01 -1.8857198022665750e-01 0.0000000000000000e+00  0.0000000000000000e+00 0.0000000000000000e+00 0.0000000000000000e+00  0.0000000000000000e+00 0.0000000000000000e+00 0.0000000000000000e+00  0.0000000000000000e+00 0.0000000000000000e+00 0.0000000000000000e+00  7.2334099149689701e-01 -3.8530096049768281e-01 0.0000000000000000e+00  0.0000000000000000e+00 0.0000000000000000e+00 0.0000000000000000e+00  0.0000000000000000e+00 0.0000000000000000e+00 0.0000000000000000e+00  6.6810984461591449e-01 -4.7496357432862490e-01 0.0000000000000000e+00  0.0000000000000000e+00 0.0000000000000000e+00 0.0000000000000000e+00  0.0000000000000000e+00 0.0000000000000000e+00 0.0000000000000000e+00  4.0845396618396995e-01 7.1317674132631048e-01 0.0000000000000000e+00  3.6213402391292365e-01 7.3785188201987828e-01 0.0000000000000000e+00  0.0000000000000000e+00 0.0000000000000000e+00 0.0000000000000000e+00  4.5318902630320956e-01 6.8551724401616398e-01 0.0000000000000000e+00  0.0000000000000000e+00 0.0000000000000000e+00 0.0000000000000000e+00  2.6513279086172298e-01 7.7807101251984256e-01 0.0000000000000000e+00  3.1422919949007072e-01 7.5954266609686738e-01 0.0000000000000000e+00  0.0000000000000000e+00 0.0000000000000000e+00 0.0000000000000000e+00  0.0000000000000000e+00 0.0000000000000000e+00 0.0000000000000000e+00  0.0000000000000000e+00 0.0000000000000000e+00 0.0000000000000000e+00  -6.9715780353370560e-01 4.3101783979152364e-01 0.0000000000000000e+00  -7.2331556639097827e-01 3.8534883634951772e-01 0.0000000000000000e+00  0.0000000000000000e+00 0.0000000000000000e+00 0.0000000000000000e+00  0.0000000000000000e+00 0.0000000000000000e+00 0.0000000000000000e+00  -6.6807852759805353e-01 4.7500780723637792e-01 0.0000000000000000e+00  0.0000000000000000e+00 0.0000000000000000e+00 0.0000000000000000e+00  0.0000000000000000e+00 0.0000000000000000e+00 0.0000000000000000e+00  -7.8368746862406724e-01 2.3943379028846487e-01 0.0000000000000000e+00  -7.6667578358090172e-01 2.8936244822334256e-01 0.0000000000000000e+00  0.0000000000000000e+00 0.0000000000000000e+00 0.0000000000000000e+00  0.0000000000000000e+00 0.0000000000000000e+00 0.0000000000000000e+00  -7.9744720560032234e-01 1.8862473669719657e-01 0.0000000000000000e+00  0.0000000000000000e+00 0.0000000000000000e+00 0.0000000000000000e+00  0.0000000000000000e+00 0.0000000000000000e+00 0.0000000000000000e+00  7.8176260238506257e-01 -2.5277379000240796e-01 0.0000000000000000e+00  7.6074480001679134e-01 -3.0114217634482210e-01 0.0000000000000000e+00  7.5067030440522098e-01 -3.2550269587698033e-01 0.0000000000000000e+00  0.0000000000000000e+00 0.0000000000000000e+00 0.0000000000000000e+00  7.7326371874539612e-01 -2.7770252581605975e-01 0.0000000000000000e+00  0.0000000000000000e+00 0.0000000000000000e+00 0.0000000000000000e+00  0.0000000000000000e+00 0.0000000000000000e+00 0.0000000000000000e+00  7.0282366493656179e-01 -4.1922930909739858e-01 0.0000000000000000e+00  7.3136366276925646e-01 -3.7449248027350401e-01 0.0000000000000000e+00  7.4297462036010276e-01 -3.5085385425778121e-01 0.0000000000000000e+00  0.0000000000000000e+00 0.0000000000000000e+00 0.0000000000000000e+00  0.0000000000000000e+00 0.0000000000000000e+00 0.0000000000000000e+00  0.0000000000000000e+00 0.0000000000000000e+00 0.0000000000000000e+00  0.0000000000000000e+00 0.0000000000000000e+00 0.0000000000000000e+00  4.1925473441398159e-01 7.0604442611001583e-01 0.0000000000000000e+00  0.0000000000000000e+00 0.0000000000000000e+00 0.0000000000000000e+00  3.7465591224561623e-01 7.3283308297865069e-01 0.0000000000000000e+00  3.9786262665536271e-01 7.2047507608697436e-01 0.0000000000000000e+00  0.0000000000000000e+00 0.0000000000000000e+00 0.0000000000000000e+00  0.0000000000000000e+00 0.0000000000000000e+00 0.0000000000000000e+00  2.5237842333442423e-01 7.8161286029610322e-01 0.0000000000000000e+00  0.0000000000000000e+00 0.0000000000000000e+00 0.0000000000000000e+00  3.0265493824578854e-01 7.6542814216600763e-01 0.0000000000000000e+00  2.7805804565606701e-01 7.7471097307078318e-01 0.0000000000000000e+00  0.0000000000000000e+00 0.0000000000000000e+00 0.0000000000000000e+00  0.0000000000000000e+00 0.0000000000000000e+00 0.0000000000000000e+00  -7.0585941308704292e-01 4.2067720585279539e-01 0.0000000000000000e+00  -7.2824323850824912e-01 3.7313264352165521e-01 0.0000000000000000e+00  0.0000000000000000e+00 0.0000000000000000e+00 0.0000000000000000e+00  0.0000000000000000e+00 0.0000000000000000e+00 0.0000000000000000e+00  -7.1895799429206342e-01 3.9783076707011172e-01 0.0000000000000000e+00  0.0000000000000000e+00 0.0000000000000000e+00 0.0000000000000000e+00  0.0000000000000000e+00 0.0000000000000000e+00 0.0000000000000000e+00  -7.7851222090749761e-01 2.5158030236104539e-01 0.0000000000000000e+00  -7.6393820434552606e-01 3.0243520770038951e-01 0.0000000000000000e+00  -7.5386258228413749e-01 3.2676888476438354e-01 0.0000000000000000e+00  0.0000000000000000e+00 0.0000000000000000e+00 0.0000000000000000e+00  0.0000000000000000e+00 0.0000000000000000e+00 0.0000000000000000e+00  0.0000000000000000e+00 0.0000000000000000e+00 0.0000000000000000e+00  0.0000000000000000e+00 0.0000000000000000e+00 0.0000000000000000e+00  7.6364296685491651e-01 -2.9519872130541314e-01 0.0000000000000000e+00  0.0000000000000000e+00 0.0000000000000000e+00 0.0000000000000000e+00  0.0000000000000000e+00 0.0000000000000000e+00 0.0000000000000000e+00  0.0000000000000000e+00 0.0000000000000000e+00 0.0000000000000000e+00  0.0000000000000000e+00 0.0000000000000000e+00 0.0000000000000000e+00  0.0000000000000000e+00 0.0000000000000000e+00 0.0000000000000000e+00  7.7678235886503866e-01 -2.7197805406208725e-01 0.0000000000000000e+00  0.0000000000000000e+00 0.0000000000000000e+00 0.0000000000000000e+00  7.6990151933574846e-01 -2.8348003007080597e-01 0.0000000000000000e+00  0.0000000000000000e+00 0.0000000000000000e+00 0.0000000000000000e+00  0.0000000000000000e+00 0.0000000000000000e+00 0.0000000000000000e+00  7.2727673455696218e-01 -3.7986650277340900e-01 0.0000000000000000e+00  0.0000000000000000e+00 0.0000000000000000e+00 0.0000000000000000e+00  7.4141400275601654e-01 -3.5735431467052003e-01 0.0000000000000000e+00  7.3560309823794545e-01 -3.6917793070663080e-01 0.0000000000000000e+00  0.0000000000000000e+00 0.0000000000000000e+00 0.0000000000000000e+00  0.0000000000000000e+00 0.0000000000000000e+00 0.0000000000000000e+00  7.1955508160286707e-01 -3.9079680475429907e-01 0.0000000000000000e+00  0.0000000000000000e+00 0.0000000000000000e+00 0.0000000000000000e+00  0.0000000000000000e+00 0.0000000000000000e+00 0.0000000000000000e+00  0.0000000000000000e+00 0.0000000000000000e+00 0.0000000000000000e+00  3.8101828049791492e-01 7.3037603411463570e-01 0.0000000000000000e+00  4.0313385027621251e-01 7.1680437566704980e-01 0.0000000000000000e+00  3.9263682121446525e-01 7.2419039231230320e-01 0.0000000000000000e+00  0.0000000000000000e+00 0.0000000000000000e+00 0.0000000000000000e+00  0.0000000000000000e+00 0.0000000000000000e+00 0.0000000000000000e+00  3.2593535226953874e-01 7.5385394179657583e-01 0.0000000000000000e+00  0.0000000000000000e+00 0.0000000000000000e+00 0.0000000000000000e+00  2.9690820110626098e-01 7.6844823249394090e-01 0.0000000000000000e+00  2.7157221784360502e-01 7.7636894943399060e-01 0.0000000000000000e+00  2.8459393950935752e-01 7.7309570848249365e-01 0.0000000000000000e+00  0.0000000000000000e+00 0.0000000000000000e+00 0.0000000000000000e+00  0.0000000000000000e+00 0.0000000000000000e+00 0.0000000000000000e+00  -7.2570745981336893e-01 3.7920799713834857e-01 0.0000000000000000e+00  0.0000000000000000e+00 0.0000000000000000e+00 0.0000000000000000e+00  0.0000000000000000e+00 0.0000000000000000e+00 0.0000000000000000e+00  -7.3092422884981845e-01 3.6712181031103197e-01 0.0000000000000000e+00  0.0000000000000000e+00 0.0000000000000000e+00 0.0000000000000000e+00  0.0000000000000000e+00 0.0000000000000000e+00 0.0000000000000000e+00  -7.1698952880882083e-01 4.0417372289832576e-01 0.0000000000000000e+00  0.0000000000000000e+00 0.0000000000000000e+00 0.0000000000000000e+00  -7.2106620465247828e-01 3.9155611335130341e-01 0.0000000000000000e+00  0.0000000000000000e+00 0.0000000000000000e+00 0.0000000000000000e+00  0.0000000000000000e+00 0.0000000000000000e+00 0.0000000000000000e+00  -7.6523253327837382e-01 2.9586757514904372e-01 0.0000000000000000e+00  0.0000000000000000e+00 0.0000000000000000e+00 0.0000000000000000e+00  -7.5774960638620315e-01 3.2123801032924920e-01 0.0000000000000000e+00  -7.6279184753308193e-01 3.0906646091147261e-01 0.0000000000000000e+00  0.0000000000000000e+00 0.0000000000000000e+00 0.0000000000000000e+00  0.0000000000000000e+00 0.0000000000000000e+00 0.0000000000000000e+00  -7.6826887652036613e-01 2.8291869916812346e-01 0.0000000000000000e+00  0.0000000000000000e+00 0.0000000000000000e+00 0.0000000000000000e+00  7.4852609530885161e-01 -3.3174495374023000e-01 0.0000000000000000e+00  0.0000000000000000e+00 0.0000000000000000e+00 0.0000000000000000e+00  7.8103521699029599e-01 -2.5950858676999156e-01 0.0000000000000000e+00  0.0000000000000000e+00 0.0000000000000000e+00 0.0000000000000000e+00  0.0000000000000000e+00 0.0000000000000000e+00 0.000