<?xml version="1.0"?>
<VTKFile type="UnstructuredGrid"  version="0.1"  >
<UnstructuredGrid>
<Piece  NumberOfPoints="1461" NumberOfCells="2789">
<Points>
<DataArray  type="Float64"  NumberOfComponents="3"  format="ascii">-0.5 6.123233995736766e-17 0  -0.4914865498419509 -0.09187475890828506 0  -0.466236114702178 -0.1806208330935763 0  -0.4251085678648071 -0.2632160814386779 0  -0.3695044586103295 -0.3368478218232786 0  -0.3013173181896286 -0.3990086136401195 0  -0.2228691778882694 -0.447581645677531 0  -0.1368314950360416 -0.4809128215864095 0  -0.04613417973165096 -0.4978670881475173 0  0.04613417973165122 -0.4978670881475172 0  0.1368314950360414 -0.4809128215864095 0  0.2228691778882688 -0.4475816456775313 0  0.3013173181896281 -0.3990086136401199 0  0.3695044586103293 -0.3368478218232789 0  0.4251085678648069 -0.2632160814386781 0  0.4662361147021779 -0.1806208330935765 0  0.4914865498419509 -0.09187475890828503 0  0.5 0 0  0.4914865498419509 0.09187475890828517 0  0.4662361147021779 0.1806208330935765 0  0.4251085678648071 0.2632160814386779 0  0.3695044586103295 0.3368478218232786 0  0.3013173181896282 0.3990086136401197 0  0.2228691778882692 0.4475816456775312 0  0.1368314950360415 0.4809128215864095 0  0.04613417973165101 0.4978670881475172 0  -0.04613417973165095 0.4978670881475173 0  -0.1368314950360414 0.4809128215864095 0  -0.2228691778882689 0.4475816456775313 0  -0.3013173181896281 0.3990086136401198 0  -0.3695044586103297 0.3368478218232785 0  -0.425108567864807 0.263216081438678 0  -0.4662361147021779 0.1806208330935767 0  -0.4914865498419509 0.09187475890828518 0  -0.9989008914857115 0.04687226246993986 0  -0.9989008914857115 -0.04687226246994006 0  -0.9901225145346509 -0.1402048722818856 0  -0.972642905324813 -0.2323053566349833 0  -0.9466156752904342 -0.3223643331611536 0  -0.912269552664897 -0.4095903603365061 0  -0.8699063724087903 -0.4932168926979072 0  -0.8198984236734248 -0.5725090172720717 0  -0.7626851781103823 -0.6467699120171984 0  -0.6987694277788414 -0.7153469695201277 0  -0.6287128665908849 -0.777637532133752 0  -0.5531311541252 -0.8330941881540912 0  -0.4726885051885656 -0.8812295824940283 0  -0.3880918526722498 -0.9216206995773374 0  -0.3000846350003406 -0.953912580814779 0  -0.2094402627661449 -0.977821443992945 0  -0.1169553219720827 -0.9931371771625541 0  -0.02344257360326047 -0.9997251851098159 0  0.07027618894529231 -0.9975275721840101 0  0.1633773618185306 -0.9865636510865464 0  0.2550427685616762 -0.9669297731502506 0  0.3444668502843321 -0.9387984816003867 0  0.4308637449409707 -0.9024169952385882 0  0.5134741935148417 -0.8581050358751444 0  0.5915722124135216 -0.8062520186022304 0  0.6644714734388218 -0.747313629600077 0  0.7315313352636686 -0.6818078215504381 0  0.7921624734111292 -0.6103102618497922 0  0.8458320592590973 -0.5334492736235703 0  0.8920684425573863 -0.4519003139999344 0  0.9304652963070865 -0.3663800381682465 0  0.9606851875768402 -0.2776400013875007 0  0.982462542875576 -0.1864600542916819 0  0.9956059820218981 -0.09364148953435038 0  1 0 0  0.9956059820218981 0.09364148953435077 0  0.9824625428755761 0.1864600542916812 0  0.9606851875768402 0.2776400013875006 0  0.9304652963070866 0.3663800381682462 0  0.8920684425573865 0.4519003139999338 0  0.8458320592590974 0.5334492736235703 0  0.7921624734111293 0.6103102618497921 0  0.731531335263669 0.6818078215504377 0  0.6644714734388217 0.7473136296000771 0  0.5915722124135224 0.8062520186022298 0  0.5134741935148421 0.8581050358751442 0  0.4308637449409705 0.9024169952385883 0  0.3444668502843328 0.9387984816003864 0  0.2550427685616765 0.9669297731502506 0  0.1633773618185302 0.9865636510865465 0  0.070276188945293 0.9975275721840101 0  -0.02344257360326044 0.9997251851098159 0  -0.1169553219720825 0.9931371771625542 0  -0.2094402627661442 0.9778214439929452 0  -0.3000846350003405 0.953912580814779 0  -0.3880918526722498 0.9216206995773374 0  -0.472688505188565 0.8812295824940286 0  -0.5531311541251994 0.8330941881540915 0  -0.6287128665908847 0.7776375321337522 0  -0.6987694277788417 0.7153469695201276 0  -0.7626851781103822 0.6467699120171985 0  -0.8198984236734244 0.5725090172720723 0  -0.8699063724087902 0.4932168926979075 0  -0.9122695526648968 0.4095903603365063 0  -0.9466156752904341 0.3223643331611538 0  -0.972642905324813 0.2323053566349835 0  -0.9901225145346509 0.1402048722818858 0  -1.1 1.1 0  -1.1 -1.1 0  1.1 -1.1 0  1.1 1.1 0  -1.1 0 0  0 -1.1 0  1.1 0 0  0 1.1 0  -1.1 -0.55 0  -1.1 0.55 0  0.55 -1.1 0  -0.55 -1.1 0  1.1 0.55 0  1.1 -0.55 0  -0.55 1.1 0  0.55 1.1 0  -1.1 -0.275 0  -1.1 0.275 0  0.275 -1.1 0  -0.275 -1.1 0  1.1 0.275 0  1.1 -0.275 0  -0.275 1.1 0  0.275 1.1 0  -1.1 -0.1375 0  -1.1 0.1375 0  0.1375 -1.1 0  -0.1375 -1.1 0  1.1 0.1375 0  1.1 -0.1375 0  -0.1375 1.1 0  0.1375 1.1 0  5.551115123125783e-17 0 0  1.1 0.8250000000000001 0  1.1 -0.8250000000000001 0  -0.8250000000000001 1.1 0  -0.8250000000000001 -1.1 0  -1.1 -0.8250000000000001 0  -1.1 0.8250000000000001 0  0.8250000000000001 -1.1 0  0.8250000000000001 1.1 0  -0.7452577130899811 0.07009504121197063 0  -0.7196145554063145 -0.2047479939110959 0  -0.6695870000800466 0.3334147091903505 0  -0.5967944603467291 -0.4506782564455942 0  -0.5037216596475655 0.5525563387374935 0  -0.3935412594153844 -0.6355909573281985 0  -0.2582020584797643 0.7036952909889966 0  -0.1224874465599003 -0.7396475322243659 0  1.804112415015879e-16 0.7472231737812758 0  0.1372852503520671 -0.7344112228591781 0  0.2911232306082124 0.6913445711599195 0  0.3932371367102588 -0.6350997822946517 0  0.5243503582032214 0.5367899979536359 0  0.5960259246062833 -0.4500978851946297 0  0.6847673336854203 0.3074465196515291 0  0.7183173129809632 -0.2043788966183693 0  0.7449256117842845 0.06204953239509305 0  -0.20035900300458 0.1513040956928792 0  -0.1321718625838789 -0.2134648875097201 0  0.1321718625838787 0.2134648875097203 0  0.1691454556057493 -0.1855437261303996 0  0.8703274951181128 0.8703274951181128 0  0.8537727593964153 -0.8740275859440739 0  0.2685886721097267 0.02488840569699225 0  -0.884556435066475 -0.8244315273435519 0  -0.8845564350664752 0.8244315273435516 0  -0.700580064659332 0.9548184980149617 0  -0.7005800646593325 -0.9548184980149612 0  -0.2980337216678105 -0.02761689135282146 0  -0.0549981651260624 0.2942141970944399 0  1.1 0.6875 0  0.9496207616733379 -0.7125799064602014 0  0.6875 -1.1 0  0.6875 1.1 0  -0.9625000000000001 1.1 0  -0.9625000000000001 -1.1 0  -1.1 -0.6875 0  -1.1 0.6875 0  2.081668171172169e-17 -0.3286953126985109 0  1.1 -0.9625000000000001 0  1.1 0.9625000000000001 0  -0.4285642961523128 0.7162057711357145 0  -0.2922226613044432 -0.776727428568197 0  0.174838450714037 0.8162746937229515 0  0.4617849541950493 0.6955138191869427 0  0.6845471893646073 0.4779975510912708 0  -0.8314184002977903 -0.07656163071707678 0  -0.8042940643706591 0.2324426440997535 0  -0.7469659197661445 -0.372041484500847 0  0.9435817685496533 0.6588731670051087 0  -0.6655841780668343 0.5027264603142332 0  -0.5616418371471765 -0.6162017817942277 0  -0.1378524463486731 0.8324299723484344 0  0.009440324071048431 -0.8383040935568646 0  0.6340216813999336 0.9549268270259341 0  0.6984391415215117 -0.9338903439767606 0  0.300664440564191 -0.7759990472259422 0  -1.1 -0.9625000000000001 0  -1.1 0.9625000000000001 0  0.9625000000000001 -1.1 0  0.9625000000000001 1.1 0  0.8255078551297768 0.1971637233367384 0  0.5931718080586599 -0.60724416156603 0  -0.964569560729961 0.61875 0  -0.9412184400777328 -0.675629987878325 0  0.01451466883707512 -0.1566382224930387 0  0.7445359644808093 -0.3707185760986815 0  -0.6496807851562796 -0.05960531119440617 0  -0.62683574040104 0.1785965340391935 0  -0.5834686517324597 -0.2905328669998186 0  -0.3401882519444225 0.5618906080620845 0  -0.5202412644899305 0.3927183715284568 0  -0.230469700834483 -0.6158690166206668 0  -0.439029499146694 -0.4815924191466816 0  0.1315973236401685 0.6465309847524076 0  -0.04929612731897073 0.1430325247211223 0  -0.1510628756856091 0.008271570971756887 0  0.2352800706632638 -0.6074862080268114 0  0.4388143211162365 -0.4814151137709591 0  0.5830621392046128 -0.290354993318151 0  0.8297887356081327 -0.08096868143845029 0  0.3167546236327295 -0.1265860605627834 0  0.2881011466407613 0.1826342016868564 0  -0.282843184752632 -0.2135932583519227 0  0.6472529330662994 -0.06273876808302634 0  -0.1187431011919023 0.6352194859156121 0  0.005630703506639467 -0.6493092616611125 0  0.3384713093165277 0.5466499340785792 0  0.5118553673379518 0.3865352308568081 0  0.6283965164136763 0.1635550987092959 0  -0.953685798793846 0.953685798793846 0  -0.89375 -0.9706384268651818 0  -0.6875 -1.1 0  0.4125 1.1 0  -0.6875 1.1 0  -0.4125 1.1 0  1.1 -0.4125 0  1.1 0.4125 0  0.4125 -1.1 0  -1.1 -0.4125 0  -1.1 0.4125 0  -0.4125 -1.1 0  1.1 -0.6875 0  0.1394115791193248 -0.04277964460399492 0  -0.3393513283955167 0.1110600808589604 0  -0.1930047892342392 0.3117134374691744 0  0.07927492778061024 0.3481510469172536 0  -0.1324701263156022 -0.3472242494295533 0  0.1439189409798292 -0.3272419854446572 0  0.7177822238787621 -0.5012045196611741 0  0.4845413164728957 -0.7297881373406302 0  0.9613904516514835 -0.9613904516514835 0  0.1835716722752551 -0.8570478058500863 0  0.02055237236693077 0.8764705026293684 0  -0.4210725768174081 -0.7622904223554584 0  -0.5511921771358804 0.6734406073486252 0  -0.6740102264683963 -0.5535712372257735 0  0.1021660343973917 0.08439258971470157 0  -0.7641327511364048 0.4203531262950583 0  -0.8282932755708275 -0.2728623792913848 0  -0.9854957873544363 0.7452945109297571 0  0.9722945504877303 -0.5512686332562167 0  -0.8708679406104808 0.04525295152524858 0  -0.3364219313405007 0.8047457289663124 0  -0.1870734116895495 -0.8510277858141307 0  0.8301367040255592 -0.2719899423920239 0  0.3741394004917264 0.7881775306901468 0  -0.8270615207685887 0.938295111785177 0  -0.7558474866591318 0.8308882058467112 0  0.6370644222528364 0.5962644341027006 0  0.7792401357821636 0.3928441213091871 0  0.8701243835998034 0.07
[...]
<PointData  Vectors="f_57"> 
<DataArray  type="Float64"  Name="f_57"  NumberOfComponents="3" format="ascii">1.1907571081907425e-01 -1.4582568811077513e-17 0.0000000000000000e+00  7.6252875065171727e-02 1.4254132722307633e-02 0.0000000000000000e+00  1.5892900090209522e-02 6.1569422960730787e-03 0.0000000000000000e+00  -5.6279288459791278e-02 -3.4846660110727977e-02 0.0000000000000000e+00  -1.2229696055954399e-01 -1.1148841054590236e-01 0.0000000000000000e+00  -1.4545694877765314e-01 -1.9261612915181903e-01 0.0000000000000000e+00  -1.0370496129976581e-01 -2.0826763791780892e-01 0.0000000000000000e+00  -4.0459422779482904e-02 -1.4220012113083660e-01 0.0000000000000000e+00  -4.5936007452134298e-03 -4.9572846866130525e-02 0.0000000000000000e+00  -2.7111489586850814e-03 2.9257956800056967e-02 0.0000000000000000e+00  -2.3587024028904464e-02 8.2899790545875887e-02 0.0000000000000000e+00  -5.5629263517901179e-02 1.1171862143115058e-01 0.0000000000000000e+00  -9.0040342111038230e-02 1.1923268232062785e-01 0.0000000000000000e+00  -1.2034371913037402e-01 1.0970779571006167e-01 0.0000000000000000e+00  -1.4167227858668582e-01 8.7719761108026623e-02 0.0000000000000000e+00  -1.5030835065723841e-01 5.8229765263838343e-02 0.0000000000000000e+00  -1.4343774892425037e-01 2.6813162242182251e-02 0.0000000000000000e+00  -1.1907571081907420e-01 -0.0000000000000000e+00 0.0000000000000000e+00  -7.6252875065171616e-02 -1.4254132722307630e-02 0.0000000000000000e+00  -1.5892900090209314e-02 -6.1569422960730024e-03 0.0000000000000000e+00  5.6279288459791285e-02 3.4846660110727970e-02 0.0000000000000000e+00  1.2229696055954391e-01 1.1148841054590228e-01 0.0000000000000000e+00  1.4545694877765308e-01 1.9261612915181936e-01 0.0000000000000000e+00  1.0370496129976563e-01 2.0826763791780889e-01 0.0000000000000000e+00  4.0459422779482890e-02 1.4220012113083660e-01 0.0000000000000000e+00  4.5936007452134445e-03 4.9572846866130636e-02 0.0000000000000000e+00  2.7111489586850398e-03 -2.9257956800056693e-02 0.0000000000000000e+00  2.3587024028904488e-02 -8.2899790545875943e-02 0.0000000000000000e+00  5.5629263517901172e-02 -1.1171862143115054e-01 0.0000000000000000e+00  9.0040342111038243e-02 -1.1923268232062784e-01 0.0000000000000000e+00  1.2034371913037419e-01 -1.0970779571006160e-01 0.0000000000000000e+00  1.4167227858668580e-01 -8.7719761108026567e-02 0.0000000000000000e+00  1.5030835065723838e-01 -5.8229765263838391e-02 0.0000000000000000e+00  1.4343774892425037e-01 -2.6813162242182297e-02 0.0000000000000000e+00  -0.0000000000000000e+00 0.0000000000000000e+00 0.0000000000000000e+00  0.0000000000000000e+00 0.0000000000000000e+00 0.0000000000000000e+00  0.0000000000000000e+00 0.0000000000000000e+00 0.0000000000000000e+00  0.0000000000000000e+00 0.0000000000000000e+00 0.0000000000000000e+00  0.0000000000000000e+00 0.0000000000000000e+00 0.0000000000000000e+00  0.0000000000000000e+00 0.0000000000000000e+00 0.0000000000000000e+00  0.0000000000000000e+00 0.0000000000000000e+00 0.0000000000000000e+00  -0.0000000000000000e+00 -0.0000000000000000e+00 0.0000000000000000e+00  -0.0000000000000000e+00 -0.0000000000000000e+00 0.0000000000000000e+00  0.0000000000000000e+00 0.0000000000000000e+00 0.0000000000000000e+00  0.0000000000000000e+00 0.0000000000000000e+00 0.0000000000000000e+00  0.0000000000000000e+00 0.0000000000000000e+00 0.0000000000000000e+00  -0.0000000000000000e+00 -0.0000000000000000e+00 0.0000000000000000e+00  0.0000000000000000e+00 0.0000000000000000e+00 0.0000000000000000e+00  0.0000000000000000e+00 0.0000000000000000e+00 0.0000000000000000e+00  0.0000000000000000e+00 0.0000000000000000e+00 0.0000000000000000e+00  0.0000000000000000e+00 0.0000000000000000e+00 0.0000000000000000e+00  -0.0000000000000000e+00 -0.0000000000000000e+00 0.0000000000000000e+00  0.0000000000000000e+00 -0.0000000000000000e+00 0.0000000000000000e+00  0.0000000000000000e+00 -0.0000000000000000e+00 0.0000000000000000e+00  0.0000000000000000e+00 -0.0000000000000000e+00 0.0000000000000000e+00  0.0000000000000000e+00 0.0000000000000000e+00 0.0000000000000000e+00  0.0000000000000000e+00 0.0000000000000000e+00 0.0000000000000000e+00  0.0000000000000000e+00 -0.0000000000000000e+00 0.0000000000000000e+00  0.0000000000000000e+00 0.0000000000000000e+00 0.0000000000000000e+00  0.0000000000000000e+00 -0.0000000000000000e+00 0.0000000000000000e+00  0.0000000000000000e+00 0.0000000000000000e+00 0.0000000000000000e+00  0.0000000000000000e+00 0.0000000000000000e+00 0.0000000000000000e+00  0.0000000000000000e+00 0.0000000000000000e+00 0.0000000000000000e+00  0.0000000000000000e+00 0.0000000000000000e+00 0.0000000000000000e+00  0.0000000000000000e+00 0.0000000000000000e+00 0.0000000000000000e+00  0.0000000000000000e+00 -0.0000000000000000e+00 0.0000000000000000e+00  0.0000000000000000e+00 -0.0000000000000000e+00 0.0000000000000000e+00  0.0000000000000000e+00 0.0000000000000000e+00 0.0000000000000000e+00  0.0000000000000000e+00 0.0000000000000000e+00 0.0000000000000000e+00  0.0000000000000000e+00 0.0000000000000000e+00 0.0000000000000000e+00  0.0000000000000000e+00 0.0000000000000000e+00 0.0000000000000000e+00  0.0000000000000000e+00 0.0000000000000000e+00 0.0000000000000000e+00  0.0000000000000000e+00 0.0000000000000000e+00 0.0000000000000000e+00  0.0000000000000000e+00 0.0000000000000000e+00 0.0000000000000000e+00  0.0000000000000000e+00 0.0000000000000000e+00 0.0000000000000000e+00  0.0000000000000000e+00 0.0000000000000000e+00 0.0000000000000000e+00  0.0000000000000000e+00 0.0000000000000000e+00 0.0000000000000000e+00  0.0000000000000000e+00 0.0000000000000000e+00 0.0000000000000000e+00  0.0000000000000000e+00 0.0000000000000000e+00 0.0000000000000000e+00  0.0000000000000000e+00 0.0000000000000000e+00 0.0000000000000000e+00  0.0000000000000000e+00 0.0000000000000000e+00 0.0000000000000000e+00  0.0000000000000000e+00 0.0000000000000000e+00 0.0000000000000000e+00  0.0000000000000000e+00 0.0000000000000000e+00 0.0000000000000000e+00  0.0000000000000000e+00 0.0000000000000000e+00 0.0000000000000000e+00  0.0000000000000000e+00 0.0000000000000000e+00 0.0000000000000000e+00  0.0000000000000000e+00 0.0000000000000000e+00 0.0000000000000000e+00  -0.0000000000000000e+00 0.0000000000000000e+00 0.0000000000000000e+00  0.0000000000000000e+00 0.0000000000000000e+00 0.0000000000000000e+00  -0.0000000000000000e+00 0.0000000000000000e+00 0.0000000000000000e+00  -0.0000000000000000e+00 0.0000000000000000e+00 0.0000000000000000e+00  -0.0000000000000000e+00 0.0000000000000000e+00 0.0000000000000000e+00  -0.0000000000000000e+00 0.0000000000000000e+00 0.0000000000000000e+00  0.0000000000000000e+00 0.0000000000000000e+00 0.0000000000000000e+00  -0.0000000000000000e+00 0.0000000000000000e+00 0.0000000000000000e+00  -0.0000000000000000e+00 0.0000000000000000e+00 0.0000000000000000e+00  -0.0000000000000000e+00 0.0000000000000000e+00 0.0000000000000000e+00  0.0000000000000000e+00 0.0000000000000000e+00 0.0000000000000000e+00  0.0000000000000000e+00 0.0000000000000000e+00 0.0000000000000000e+00  0.0000000000000000e+00 0.0000000000000000e+00 0.0000000000000000e+00  0.0000000000000000e+00 0.0000000000000000e+00 0.0000000000000000e+00  0.0000000000000000e+00 0.0000000000000000e+00 0.0000000000000000e+00  0.0000000000000000e+00 0.0000000000000000e+00 0.0000000000000000e+00  0.0000000000000000e+00 0.0000000000000000e+00 0.0000000000000000e+00  0.0000000000000000e+00 0.0000000000000000e+00 0.0000000000000000e+00  0.0000000000000000e+00 0.0000000000000000e+00 0.0000000000000000e+00  0.0000000000000000e+00 0.0000000000000000e+00 0.0000000000000000e+00  0.0000000000000000e+00 0.0000000000000000e+00 0.0000000000000000e+00  0.0000000000000000e+00 0.0000000000000000e+00 0.0000000000000000e+00  0.0000000000000000e+00 0.0000000000000000e+00 0.0000000000000000e+00  0.0000000000000000e+00 0.0000000000000000e+00 0.0000000000000000e+00  0.0000000000000000e+00 0.0000000000000000e+00 0.0000000000000000e+00  0.0000000000000000e+00 0.0000000000000000e+00 0.0000000000000000e+00  0.0000000000000000e+00 0.0000000000000000e+00 0.0000000000000000e+00  0.0000000000000000e+00 0.0000000000000000e+00 0.0000000000000000e+00  0.0000000000000000e+00 0.0000000000000000e+00 0.0000000000000000e+00  0.0000000000000000e+00 0.0000000000000000e+00 0.0000000000000000e+00  0.0000000000000000e+00 0.0000000000000000e+00 0.0000000000000000e+00  0.0000000000000000e+00 0.0000000000000000e+00 0.0000000000000000e+00  0.0000000000000000e+00 0.0000000000000000e+00 0.0000000000000000e+00  0.0000000000000000e+00 0.0000000000000000e+00 0.0000000000000000e+00  0.0000000000000000e+00 0.0000000000000000e+00 0.0000000000000000e+00  0.0000000000000000e+00 0.0000000000000000e+00 0.0000000000000000e+00  0.0000000000000000e+00 0.0000000000000000e+00 0.0000000000000000e+00  0.0000000000000000e+00 0.0000000000000000e+00 0.0000000000000000e+00  0.0000000000000000e+00 0.0000000000000000e+00 0.0000000000000000e+00  0.0000000000000000e+00 0.0000000000000000e+00 0.0000000000000000e+00  0.0000000000000000e+00 0.0000000000000000e+00 0.0000000000000000e+00  0.0000000000000000e+00 0.0000000000000000e+00 0.0000000000000000e+00  0.0000000000000000e+00 0.0000000000000000e+00 0.0000000000000000e+00  0.0000000000000000e+00 0.0000000000000000e+00 0.0000000000000000e+00  0.0000000000000000e+00 0.0000000000000000e+00 0.0000000000000000e+00  0.0000000000000000e+00 0.0000000000000000e+00 0.0000000000000000e+00  0.0000000000000000e+00 0.0000000000000000e+00 0.0000000000000000e+00  -1.3220059582494303e-17 -0.0000000000000000e+00 0.0000000000000000e+00  0.0000000000000000e+00 0.0000000000000000e+00 0.0000000000000000e+00  0.0000000000000000e+00 0.0000000000000000e+00 0.0000000000000000e+00  0.0000000000000000e+00 0.0000000000000000e+00 0.0000000000000000e+00  0.0000000000000000e+00 0.0000000000000000e+00 0.0000000000000000e+00  0.0000000000000000e+00 0.0000000000000000e+00 0.0000000000000000e+00  0.0000000000000000e+00 0.0000000000000000e+00 0.0000000000000000e+00  0.0000000000000000e+00 0.0000000000000000e+00 0.0000000000000000e+00  0.0000000000000000e+00 0.0000000000000000e+00 0.0000000000000000e+00  1.0067266330139135e-01 -9.4687439782026941e-03 0.0000000000000000e+00  3.6233519235997817e-02 1.0309325068780507e-02 0.0000000000000000e+00  1.1141629574505044e-01 -5.5478723213654380e-02 0.0000000000000000e+00  -6.9363883556515085e-02 -5.2381173383183488e-02 0.0000000000000000e+00  8.0016306446170873e-02 -8.7773706931975018e-02 0.0000000000000000e+00  -9.9181707807954267e-02 -1.6018395811597835e-01 0.0000000000000000e+00  2.6815391592974368e-02 -7.3081775184533834e-02 0.0000000000000000e+00  -1.0598008547778582e-02 -6.3996687734230326e-02 0.0000000000000000e+00  1.3265414483736147e-18 5.4942391779805935e-03 0.0000000000000000e+00  -8.3817338755930067e-03 4.4838315911347820e-02 0.0000000000000000e+00  6.0780430965910459e-02 1.4433826147523213e-01 0.0000000000000000e+00  -5.5178716753145236e-02 8.9116687427824415e-02 0.0000000000000000e+00  1.0202663622498420e-01 1.0444710677435971e-01 0.0000000000000000e+00  -1.0010905871101913e-01 7.5598851919770532e-02 0.0000000000000000e+00  2.8720449789184539e-03 1.2894894216095524e-03 0.0000000000000000e+00  -1.1265574484606090e-01 3.2053322972000628e-02 0.0000000000000000e+00  -7.7088861984588516e-02 -6.4212154386211889e-03 0.0000000000000000e+00  6.6476277310088594e-02 -5.0200554367911779e-02 0.0000000000000000e+00  -6.5977747813103296e-02 -1.0655772143735080e-01 0.0000000000000000e+00  6.5977747813103171e-02 1.0655772143735089e-01 0.0000000000000000e+00  -5.3247533880132099e-02 5.8409762225019486e-02 0.0000000000000000e+00  0.0000000000000000e+00 0.0000000000000000e+00 0.0000000000000000e+00  0.0000000000000000e+00 0.0000000000000000e+00 0.0000000000000000e+00  -5.3935693862035082e-02 -4.9978780558500380e-03 0.0000000000000000e+00  0.0000000000000000e+00 0.0000000000000000e+00 0.0000000000000000e+00  0.0000000000000000e+00 0.0000000000000000e+00 0.0000000000000000e+00  0.0000000000000000e+00 0.0000000000000000e+00 0.0000000000000000e+00  0.0000000000000000e+00 0.0000000000000000e+00 0.0000000000000000e+00  5.9848598402061463e-02 5.5457893504099126e-03 0.0000000000000000e+00  6.6394989418337592e-03 -3.5518182212142806e-02 0.0000000000000000e+00  0.0000000000000000e+00 0.0000000000000000e+00 0.0000000000000000e+00  0.0000000000000000e+00 0.0000000000000000e+00 0.0000000000000000e+00  0.0000000000000000e+00 0.0000000000000000e+00 0.0000000000000000e+00  0.0000000000000000e+00 0.0000000000000000e+00 0.0000000000000000e+00  0.0000000000000000e+00 0.0000000000000000e+00 0.0000000000000000e+00  0.0000000000000000e+00 0.0000000000000000e+00 0.0000000000000000e+00  0.0000000000000000e+00 0.0000000000000000e+00 0.0000000000000000e+00  0.0000000000000000e+00 0.0000000000000000e+00 0.0000000000000000e+00  3.0276207890967132e-19 -4.7806118947588475e-03 0.0000000000000000e+00  0.0000000000000000e+00 0.0000000000000000e+00 0.0000000000000000e+00  0.0000000000000000e+00 0.0000000000000000e+00 0.0000000000000000e+00  3.8721383893272891e-02 -6.4710193685540596e-02 0.0000000000000000e+00  -3.7977083706445730e-02 -1.0094303583490859e-01 0.0000000000000000e+00  1.2899032706980259e-02 6.0222187563500888e-02 0.0000000000000000e+00  7.6151930640207685e-02 1.1469563838508845e-01 0.0000000000000000e+00  4.2977742515578080e-02 3.0009991996235705e-02 0.0000000000000000e+00  5.5187911851865189e-02 5.0820098830332769e-03 0.0000000000000000e+00  8.1285169087262243e-02 -2.3491581581573641e-02 0.0000000000000000e+00  -1.0754670971962112e-02 -5.3565814019729541e-03 0.0000000000000000e+00  0.0000000000000000e+00 0.0000000000000000e+00 0.0000000000000000e+00  7.3267446767922004e-02 -5.5340083769539840e-02 0.0000000000000000e+00  -7.8650766182280132e-02 -8.6291189607910504e-02 0.0000000000000000e+00  4.6429095128936700e-03 -2.8036477696295619e-02 0.0000000000000000e+00  1.5196014279565816e-05 -1.3494114058410526e-03 0.0000000000000000e+00  0.0000000000000000e+00 0.0000000000000000e+00 0.0000000000000000e+00  0.0000000000000000e+00 0.0000000000000000e+00 0.0000000000000000e+00  -2.1690701982109695e-02 5.5982556634213622e-02 0.0000000000000000e+00  0.0000000000000000e+00 0.0000000000000000e+00 0.0000000000000000e+00  0.0000000000000000e+00 0.0000000000000000e+00 0.0000000000000000e+00  0.0000000000000000e+00 0.0000000000000000e+00 0.0000000000000000e+00  0.0000000000000000e+00 0.0000000000000000e+00 0.0000000000000000e+00  -3.1659507338834283e-02 -7.5615347657110423e-03 0.0000000000000000e+00  -5.7269363538293747e-02 5.8628016660212286e-02 0.0000000000000000e+00  0.0000000000000000e+00 0.0000000000000000e+00 0.0000000000000000e+00  0.0000000000000000e+00 0.0000000000000000e+00 0.0000000000000000e+00  -8.5297776035446287e-04 9.2050960106465681e-03 0.0000000000000000e+00  -8.2728486904427925e-02 4.1192082493146570e-02 0.0000000000000000e+00  9.0879364866805479e-02 8.3377759475107439e-03 0.0000000000000000e+00  1.3524098084854042e-01 -3.8532535531808014e-02 0.0000000000000000e+00  -1.7635199078633208e-02 -8.7812857352569697e-03 0.0000000000000000e+00  6.4113910025016693e-02 -1.0589726036476976e-01 0.0000000000000000e+00  1.2019799758574030e-01 -9.0734751537124500e-02 0.0000000000000000e+00  -6.0015919046449345e-02 -1.6037659141696620e-01 0.0000000000000000e+00  -1.2879379060620738e-01 -1.4128005819579251e-01 0.0000000000000000e+00  1.9000216986842077e-02 9.3347103567255341e-02 0.0000000000000000e+00  9.7905743201627659e-03 -2.8407313913759676e-02 0.0000000000000000e+00  3.8787810313633403e-02 -2.1238581907839756e-03 0.0000000000000000e+00  -3.5249664854401279e-02 9.1013595738262787e-02 0.0000000000000000e+00  -9.6309359926184293e-02 1.0565922586147958e-01 0.0000000000000000e+00  -1.3422933335738127e-01 6.6843916916384055e-02 0.0000000000000000e+00  -7.4395367407785296e-02 7.2593113712525999e-03 0.0000000000000000e+00  -1.0247644380055042e-01 4.0953117502827728e-02 0.0000000000000000e+00  4.1270280994842978e-02 2.6162217369734633e-02 0.0000000000000000e+00  -6.5186774246127552e-02 -4.9226766856195280e-02 0.0000000000000000e+00  -1.2197062552111398e-01 1.1822714732645305e-02 0.0000000000000000e+00  1.0142745000815061e-02 -5.4258893363231947e-02 0.0000000000000000e+00  2.8285904496318079e-05 -3.2618126211519283e-03 0.0000000000000000e+00  1.2065222267692377e-01 1.9486003025176893e-01 0.0000000000000000e+00  8.4603925150538981e-02 6.3889918571204490e-02 0.0000000000000000e+00  -5.0416994651178819e-02 -1.3122218728805368e-02 0.0000000000000000e+00  0.0000000000000000e+00 0.0000000000000000e+00 0.0000000000000000e+00  0.0000000000000000e+00 0.0000000000000000e+00 0.0000000000000000e+00  0.0000000000000000e+00 0.0000000000000000e+00 0.0000000000000000e+00  0.0000000000000000e+00 0.0000000000000000e+00 0.0000000000000000e+00  0.0000000000000000e+00 0.0000000000000000e+00 0.0000000000000000e+00  0.0000000000000000e+00 0.0000000000000000e+00 0.0000000000000000e+00  0.0000000000000000e+00 0.0000000000000000e+00 0.0000000000000000e+00  0.0000000000000000e+00 0.0000000000000000e+00 0.0000000000000000e+00  0.0000000000000000e+00 0.0000000000000000e+00 0.0000000000000000e+00  0.0000000000000000e+00 0.0000000000000000e+00 0.0000000000000000e+00  0.0000000000000000e+00 0.0000000000000000e+00 0.0000000000000000e+00  0.0000000000000000e+00 0.0000000000000000e+00 0.0000000000000000e+00  0.0000000000000000e+00 0.0000000000000000e+00 0.0000000000000000e+00  -4.3633677898933361e-02 1.3389370130323772e-02 0.0000000000000000e+00  1.0713381109536411e-01 -3.5061862817027716e-02 0.0000000000000000e+00  5.3519194534852550e-02 -8.6436467018409208e-02 0.0000000000000000e+00  1.8815389934847087e-02 8.2631392892616076e-02 0.0000000000000000e+00  -5.1193095827585043e-02 -1.3418485185376344e-01 0.0000000000000000e+00  -3.3484055556104488e-02 7.6135835535744822e-02 0.0000000000000000e+00  -5.9526692807257309e-02 4.1565598147940468e-02 0.0000000000000000e+00  -3.4289586281861920e-02 5.1644993836600171e-02 0.0000000000000000e+00  0.0000000000000000e+00 0.0000000000000000e+00 0.0000000000000000e+00  -6.1837247278519946e-03 2.8870182661079696e-02 0.0000000000000000e+00  1.7748572255255524e-04 7.5690045741617588e-03 0.0000000000000000e+00  -5.2951292666995241e-02 -9.5860584311798239e-02 0.0000000000000000e+00  4.3801830937478893e-02 -5.3516600657860437e-02 0.0000000000000000e+00  -4.7403607290745858e-02 -3.8933049539024038e-02 0.0000000000000000e+00  2.8426419821540649e-02 2.3481181384861362e-02 0.0000000000000000e+00  6.4903068674771441e-02 -3.5703492335604547e-02 0.0000000000000000e+00  1.5279456834802212e-02 5.0334695079480157e-03 0.0000000000000000e+00  0.0000000000000000e+00 0.0000000000000000e+00 0.0000000000000000e+00  0.0000000000000000e+00 0.0000000000000000e+00 0.0000000000000000e+00  5.7026639487443749e-02 -2.9632779346132482e-03 0.0000000000000000e+00  1.9394575451312072e-02 -4.6393235118079586e-02 0.0000000000000000e+00  -1.1029854395730551e-02 -5.0176625739996587e-02 0.0000000000000000e+00  -6.6284125828985560e-02 2.1717646597609493e-02 0.0000000000000000e+00  4.3225719231999402e-02 9.1061087396317339e-02 0.0000000000000000e+00  0.0000000000000000e+00 0.0000000000000000e+00 0.0000000000000000e+00  0.0000000000000000e+00 0.0000000000000000e+00 0.0000000000000000e+00  5.5980653044562005e-02 5.2395442662261732e-02 0.0000000000000000e+00  9.5035604230740128e-03 4.7911005507485210e-03 0.0000000000000000e+00  -4.4322600056976365e-02 -4.0224710289544011e-03 0.0000000000000000e+00  0.0000000000000000e+00 0.0000000000000000e+00 0.0000000000000000e+00  1.3418237922786848e-02 6.4610756256459640e-03 0.0000000000000000e+00  9.9001281431049373e-02 -7.6644463138994368e-02 0.0000000000000000e+00  1.0910606134314214e-01 1.4029963979967983e-01 0.0000000000000000e+00  -9.1389629955687515e-02 8.0970867977582420e-02 0.0000000000000000e+00  0.0000000000000000e+00 0.0000000000000000e+00 0.0000000000000000e+00  0.0000000000000000e+00 0.0000000000000000e+00 0.0000000000000000e+00  1.4071745908968863e-04 1.1748283676991213e-02 0.0000000000000000e+00  -1.