<?xml version="1.0"?>
<VTKFile type="UnstructuredGrid"  version="0.1"  >
<UnstructuredGrid>
<Piece  NumberOfPoints="3915" NumberOfCells="7208">
<Points>
<DataArray  type="Float64"  NumberOfComponents="3"  format="ascii">-0.4989726963751682 0.03203510999035662 0  -0.4989726963751682 -0.0320351099903565 0  -0.4907795784955327 -0.09557931435068615 0  -0.4745278735053343 -0.1575541090118103 0  -0.4504844339512096 -0.216941869558779 0  -0.4190440524459204 -0.2727674506052742 0  -0.3807229791845673 -0.3241141976538941 0  -0.3361504451306585 -0.3701389985376576 0  -0.286058330061085 -0.4100861272984778 0  -0.2312691451204177 -0.4432996531865 0  -0.1726825272106537 -0.4692342110248803 0  -0.1112604669781573 -0.4874639560909118 0  -0.04801151295384078 -0.4976895564745991 0  0.01602578878582743 -0.4997431081003439 0  0.0797999475166892 -0.4935908917072251 0  0.142263793315516 -0.4793339265183304 0  0.2023916715611969 -0.4572063115079062 0  0.2591962841552622 -0.4275713815026732 0  0.3117449009293667 -0.390915741234015 0  0.3591746750488635 -0.3478412753017435 0  0.400706810933978 -0.2990552652456085 0  0.4356593520616947 -0.2453587760019689 0  0.4634583786730108 -0.1876335024396873 0  0.4836474315195147 -0.1268272919547538 0  0.495895006911623 -0.06393858084225332 0  0.5 0 0  0.4958950069116231 0.063938580842253 0  0.4836474315195147 0.1268272919547537 0  0.4634583786730109 0.187633502439687 0  0.4356593520616947 0.2453587760019689 0  0.4007068109339783 0.299055265245608 0  0.3591746750488638 0.3478412753017432 0  0.3117449009293668 0.3909157412340149 0  0.2591962841552626 0.427571381502673 0  0.2023916715611969 0.4572063115079062 0  0.1422637933155162 0.4793339265183303 0  0.07979994751668977 0.493590891707225 0  0.01602578878582767 0.4997431081003439 0  -0.04801151295384088 0.4976895564745991 0  -0.1112604669781572 0.4874639560909118 0  -0.1726825272106537 0.4692342110248802 0  -0.2312691451204175 0.4432996531865001 0  -0.2860583300610849 0.4100861272984779 0  -0.3361504451306584 0.3701389985376577 0  -0.3807229791845671 0.3241141976538944 0  -0.4190440524459203 0.2727674506052744 0  -0.4504844339512095 0.2169418695587791 0  -0.4745278735053343 0.1575541090118106 0  -0.4907795784955327 0.09557931435068627 0  -0.9994965423831851 0.0317279334980681 0  -0.9994965423831851 -0.03172793349806786 0  -0.9954719225730846 -0.09505604330418263 0  -0.9874388886763943 -0.1580013959733501 0  -0.975429786885407 -0.2203105327865406 0  -0.9594929736144975 -0.2817325568414294 0  -0.9396926207859084 -0.3420201433256687 0  -0.9161084574320697 -0.4009305354066134 0  -0.8888354486549237 -0.4582265217274099 0  -0.857983413234977 -0.5136773915734064 0  -0.8236765814298328 -0.5670598638627706 0  -0.7860530947427877 -0.6181589862206049 0  -0.7452644496757548 -0.6667690005162915 0  -0.7014748877063216 -0.7126941713788626 0  -0.6548607339452849 -0.7557495743542585 0  -0.6056096871376666 -0.7957618405308321 0  -0.5539200638661105 -0.8325698546347713 0  -0.5000000000000004 -0.8660254037844384 0  -0.444066612605774 -0.895993774291336 0  -0.3863451256931287 -0.9223542941045814 0  -0.3270679633174219 -0.9450008187146683 0  -0.2664738136900355 -0.9638421585599419 0  -0.2048066680651905 -0.9788024462147787 0  -0.1423148382732852 -0.9898214418809327 0  -0.07924995685678879 -0.9968547759519423 0  -0.01586596383480761 -0.9998741276738751 0  0.04758191582374238 -0.998867339183008 0  0.1108381999010109 -0.9938384644612541 0  0.17364817766693 -0.9848077530122081 0  0.2357589355094266 -0.9718115683235419 0  0.2969203753282749 -0.9549022414440739 0  0.3568862215918717 -0.9341478602651068 0  0.415415013001886 -0.9096319953545186 0  0.4722710747726821 -0.8814533634475823 0  0.5272254676105024 -0.8497254299495144 0  0.5800569095711979 -0.8145759520503358 0  0.6305526670845221 -0.7761464642917572 0  0.6785094115571316 -0.7345917086575338 0  0.7237340381050695 -0.6900790114821127 0  0.7660444431189772 -0.6427876096865403 0  0.8052702575310587 -0.5929079290546402 0  0.8412535328311812 -0.5406408174555974 0  0.8738493770697849 -0.4861967361004688 0  0.9029265382866211 -0.4297949120891719 0  0.9283679330160723 -0.3716624556603281 0  0.9500711177409454 -0.3120334456984871 0  0.9679487013963562 -0.2511479871810794 0  0.9819286972627066 -0.1892512443604106 0  0.9919548128307952 -0.1265924535737499 0  0.9979866764718843 -0.06342391965656541 0  1 0 0  0.9979866764718844 0.06342391965656451 0  0.9919548128307953 0.1265924535737493 0  0.9819286972627067 0.1892512443604102 0  0.9679487013963562 0.2511479871810792 0  0.9500711177409454 0.3120334456984871 0  0.9283679330160726 0.3716624556603275 0  0.9029265382866213 0.4297949120891716 0  0.8738493770697849 0.4861967361004687 0  0.8412535328311812 0.5406408174555976 0  0.8052702575310586 0.5929079290546404 0  0.7660444431189781 0.6427876096865393 0  0.7237340381050702 0.6900790114821119 0  0.6785094115571322 0.7345917086575333 0  0.6305526670845225 0.7761464642917568 0  0.5800569095711983 0.8145759520503356 0  0.5272254676105024 0.8497254299495144 0  0.4722710747726827 0.8814533634475821 0  0.4154150130018864 0.9096319953545183 0  0.3568862215918719 0.9341478602651067 0  0.2969203753282749 0.9549022414440739 0  0.2357589355094273 0.9718115683235417 0  0.1736481776669306 0.984807753012208 0  0.1108381999010111 0.9938384644612541 0  0.0475819158237424 0.998867339183008 0  -0.01586596383480803 0.9998741276738751 0  -0.07924995685678854 0.9968547759519424 0  -0.142314838273285 0.9898214418809328 0  -0.2048066680651905 0.9788024462147787 0  -0.266473813690035 0.963842158559942 0  -0.3270679633174214 0.9450008187146686 0  -0.3863451256931285 0.9223542941045815 0  -0.4440666126057741 0.8959937742913359 0  -0.4999999999999998 0.8660254037844387 0  -0.5539200638661103 0.8325698546347714 0  -0.6056096871376665 0.7957618405308323 0  -0.654860733945285 0.7557495743542583 0  -0.7014748877063214 0.7126941713788627 0  -0.7452644496757547 0.6667690005162917 0  -0.7860530947427873 0.6181589862206055 0  -0.8236765814298327 0.5670598638627709 0  -0.8579834132349768 0.5136773915734066 0  -0.8888354486549234 0.4582265217274105 0  -0.9161084574320695 0.400930535406614 0  -0.9396926207859082 0.3420201433256693 0  -0.9594929736144974 0.2817325568414297 0  -0.975429786885407 0.2203105327865408 0  -0.9874388886763943 0.1580013959733499 0  -0.9954719225730846 0.09505604330418288 0  -1 1 0  -1 -1 0  1 -1 0  1 1 0  1 0.5076469359690824 0  0 1 0  -1 0 0  0 -1 0  1 -0.5076469359690896 0  1 0.2538234679845412 0  0.01585797599446719 0.9993707334284415 0  -0.5 1 0  0.5 1 0  -0.9994965423831851 1.214306433183765e-16 0  -1 0.5 0  -1 -0.5 0  0.01585797599446739 -0.9993707334284415 0  -0.5 -1 0  0.5 -1 0  1 -0.2538234679845448 0  1 0.1269117339922706 0  1 0.3807352019768118 0  -3.993920170421508e-06 0.9996224305511583 0  -0.25 1 0  0.25 1 0  -1 0.25 0  -1 -0.25 0  -3.993920170110993e-06 -0.9996224305511583 0  -0.25 -1 0  0.25 -1 0  1 -0.1269117339922724 0  1 -0.3807352019768172 0  1 0.0634558669961353 0  1 0.1903676009884059 0  1 0.3172793349806765 0  -0.125 1 0  -0.375 1 0  0.125 1 0  0.375 1 0  -1 0.125 0  -1 0.375 0  -1 -0.125 0  -1 -0.375 0  -0.125 -1 0  -0.375 -1 0  0.125 -1 0  0.375 -1 0  1 -0.0634558669961362 0  1 -0.1903676009884086 0  1 -0.317279334980681 0  -0.1107823975650368 0.9933381089164376 0  -0.0625 1 0  -0.1875 1 0  -0.3125 1 0  0.1422431887839709 0.9893231087367311 0  0.0625 1 0  0.1875 1 0  0.3125 1 0  -0.9914554056247394 0.1265287196387664 0  -1 0.0625 0  -1 0.1875 0  -1 0.3125 0  -0.9914554056247394 -0.1265287196387664 0  -1 -0.0625 0  -1 -0.1875 0  -1 -0.3125 0  -0.110782397565037 -0.9933381089164375 0  -0.0625 -1 0  -0.1875 -1 0  -0.3125 -1 0  0.1422431887839704 -0.9893231087367311 0  0.0625 -1 0  0.1875 -1 0  0.3125 -1 0  -0.1265486179191609 0.9915797753986852 0  -0.04755796034579828 0.9983644518129087 0  -0.03125 1 0  -0.09375 1 0  -0.1735607531692377 0.9843119440478558 0  -0.21875 1 0  -0.15625 1 0  0.126540694342491 0.9915807865989926 0  0.07921005786237675 0.9963529018221311 0  0.03125 1 0  0.09375 1 0  0.204703556588179 0.9783096606678748 0  0.15625 1 0  -0.9934636640989121 0.1107923814714746 0  -0.9974842324781348 0.06339198840112549 0  -1 0.03125 0  -1 0.09375 0  -0.9814343377809007 0.1891559643799454 0  -1 0.21875 0  -1 0.15625 0  -0.9934636640989121 -0.1107923814714745 0  -0.9974842324781348 -0.06339198840112524 0  -1 -0.03125 0  -1 -0.09375 0  -0.9814343377809007 -0.1891559643799453 0  -1 -0.21875 0  -1 -0.15625 0  -0.1265486179191611 -0.991579775398685 0  -0.0475579603457982 -0.9983644518129087 0  -0.03125 -1 0  -0.09375 -1 0  -0.1735607531692379 -0.9843119440478557 0  -0.21875 -1 0  -0.15625 -1 0  0.1265406943424906 -0.9915807865989926 0  0.07921005786237661 -0.9963529018221311 0  0.03125 -1 0  0.09375 -1 0  0.2047035565881783 -0.9783096606678749 0  0.15625 -1 0  -0.06340395860129341 0.9976096138824255 0  -0.03171196209030316 0.9991192897433918 0  -0.015625 1 0  -0.046875 1 0  -0.09501617721091266 0.9950964424341899 0  -0.109375 1 0  -0.078125 1 0  -0.1579377957212614 0.9870666929643943 0  -0.140625 1 0  0.06339598684305958 0.9976101205025696 0  0.03171994590910479 0.9991190363057247 0  0.015625 1 0  0.046875 1 0  0.09502412888169393 0.9950956831416926 0  0.109375 1 0  0.078125 1 0  0.21875 1 0  0.1579456832254507 0.9870654308744695 0  0.140625 1 0  0.171875 1 0  -0.9984903874306599 0.0475599609495968 0  -0.9994965423831851 0.01586396674903411 0  -1 0.046875 0  -0.9964780775256097 0.07922401585265418 0  -1 0.109375 0  -1 0.078125 0  -0.9984903874306599 -0.04755996094959655 0  -0.9994965423831851 -0.01586396674903387 0  -1 -0.046875 0  -0.9964780775256097 -0.07922401585265393 0  -1 -0.109375 0  -1 -0.078125 0  -0.0634039586012935 -0.9976096138824255 0  -0.0317119620903029 -0.9991192897433918 0  -0.015625 -1 0  -0.046875 -1 0  -0.09501617721091291 -0.9950964424341899 0  -0.109375 -1 0  -0.078125 -1 0  -0.1579377957212615 -0.9870666929643942 0  -0.140625 -1 0  0.0633959868430595 -0.9976101205025696 0  0.03171994590910489 -0.999119
[...]
<CellData  Scalars="f">
<DataArray  type="Float64"  Name="f"  format="ascii">2 2 2 1 0 1 1 2 0 2 1 2 1 2 1 1 1 2 1 2 1 2 1 2 1 2 1 2 1 2 0 2 0 2 0 2 0 2 1 2 1 2 1 2 1 2 1 2 1 2 1 1 1 2 1 2 1 2 1 2 1 2 1 2 1 2 1 2 1 2 1 2 1 2 1 2 1 2 1 2 0 2 0 2 1 2 1 2 1 2 1 2 1 0 1 1 0 0 1 0 1 0 1 0 1 1 0 1 1 0 1 1 1 0 1 1 0 1 0 1 1 0 0 0 0 0 0 0 0 0 0 1 0 1 1 1 1 1 0 0 0 1 0 1 0 1 0 1 0 1 1 1 0 1 1 0 1 1 0 1 1 0 1 0 1 1 0 1 0 0 1 0 1 1 0 1 1 1 1 0 1 0 1 0 1 1 0 1 0 1 0 1 1 1 0 1 1 0 1 1 1 0 0 0 0 1 0 0 1 0 0 1 0 1 0 1 1 0 1 0 1 0 1 0 1 0 1 1 0 1 1 1 0 1 1 0 1 0 1 0 1 0 1 0 1 0 1 1 1 0 0 1 0 0 1 0 0 0 1 0 0 1 0 0 0 0 0 0 1 0 1 1 0 1 1 0 0 0 1 0 0 0 0 0 0 0 0 1 0 0 0 0 0 0 0 0 0 0 0 0 0 0 0 0 0 1 0 0 0 1 1 0 0 0 0 1 0 0 0 0 1 1 0 0 1 0 0 0 1 0 0 0 0 0 0 0 1 0 0 0 0 0 0 0 0 0 1 0 0 0 0 1 1 0 0 1 1 0 0 0 0 0 0 1 1 0 0 1 1 0 0 0 1 0 1 1 0 1 1 0 0 0 1 1 0 0 0 1 1 1 0 0 0 1 1 0 0 0 1 1 0 0 1 0 0 0 1 1 0 0 0 0 0 0 0 0 1 1 1 0 0 1 1 0 0 0 0 0 0 0 0 1 1 0 1 1 0 0 1 0 1 0 0 0 0 0 0 0 0 0 1 1 1 0 0 1 1 0 1 1 1 0 0 1 0 0 0 1 1 0 0 1 0 0 1 1 0 1 0 0 0 1 1 1 0 0 0 0 0 1 0 0 1 0 0 0 0 0 0 1 0 0 0 0 0 0 0 1 0 0 0 0 1 1 1 1 0 0 0 1 0 1 1 1 0 0 0 0 0 1 1 0 0 0 0 1 0 0 0 0 0 0 0 0 0 1 1 0 0 0 0 0 1 0 1 0 1 0 0 0 1 1 1 1 0 0 0 0 0 1 0 1 1 0 0 0 0 0 1 1 0 0 1 0 0 1 1 0 0 1 1 0 0 0 0 0 0 0 0 0 0 0 0 1 0 0 0 0 0 0 0 1 1 0 0 0 0 0 0 1 1 0 0 0 0 0 0 0 0 0 1 0 0 1 0 1 1 1 0 0 1 0 0 0 1 1 0 0 0 0 0 0 0 0 0 0 0 1 1 1 0 0 1 0 0 0 1 1 0 0 0 1 0 0 0 1 0 0 0 0 1 0 1 0 0 1 0 0 0 0 0 0 1 1 1 1 0 1 0 0 0 1 0 0 0 0 0 0 1 1 0 0 1 1 0 0 1 1 0 0 0 0 0 0 0 0 0 0 0 0 0 0 0 1 0 1 1 0 0 1 1 1 1 0 0 0 1 0 0 1 1 1 0 0 0 0 0 0 0 1 0 1 1 0 1 0 0 0 1 1 0 0 1 0 0 1 0 0 0 1 0 1 0 0 0 0 1 0 0 0 1 1 0 0 0 0 0 0 0 0 0 0 0 0 0 0 0 0 0 0 0 1 1 1 1 0 0 1 1 0 0 1 0 0 1 0 1 1 0 0 0 1 0 0 0 0 0 1 1 0 0 0 0 1 1 0 0 0 1 0 0 1 1 0 0 1 0 0 1 0 0 0 1 1 0 0 0 0 1 1 0 0 1 1 0 0 0 0 1 0 0 0 0 1 1 0 0 0 1 1 1 0 0 0 0 1 1 1 1 1 1 1 1 1 1 1 1 0 0 1 1 0 0 1 1 1 0 0 0 0 0 1 0 0 0 0 0 0 0 1 0 0 1 1 1 0 0 1 0 0 1 1 0 0 0 1 0 1 0 0 0 0 1 0 0 0 0 0 0 0 1 1 0 0 1 1 0 0 1 1 0 0 0 0 0 0 0 0 0 1 1 1 1 1 0 0 1 1 0 0 0 1 0 0 0 0 1 0 0 0 0 0 1 1 0 0 0 0 0 0 0 0 0 1 1 0 0 1 1 0 0 1 1 0 0 1 1 1 1 0 0 1 1 0 1 0 0 1 1 0 0 0 0 1 0 0 0 1 0 0 0 1 0 0 0 0 1 1 0 0 1 0 0 0 1 1 1 1 1 1 1 0 1 1 0 0 0 0 1 1 1 1 1 1 1 1 0 0 1 1 0 0 1 1 1 1 0 0 1 1 0 0 0 0 1 0 0 0 0 0 0 0 0 0 0 1 1 0 0 1 1 0 0 0 0 1 1 0 0 1 1 0 0 1 0 0 0 0 0 0 0 0 0 0 0 1 0 0 0 1 0 1 0 0 0 0 0 0 0 1 0 0 0 0 1 1 0 0 0 1 0 0 1 1 0 0 1 1 0 0 1 1 1 0 0 0 0 0 1 0 1 0 1 0 0 1 0 0 0 0 1 1 1 0 0 1 0 0 0 0 0 0 0 0 0 1 1 0 0 1 1 0 0 1 1 0 0 1 1 1 1 0 0 1 1 0 0 0 0 1 1 0 0 1 1 0 1 1 1 1 0 0 1 1 1 0 0 1 0 1 0 0 1 0 0 0 1 0 1 1 0 0 0 0 0 0 1 0 0 1 0 1 1 1 0 0 0 1 0 0 0 1 1 1 0 0 0 0 0 0 0 0 1 1 0 0 1 1 0 0 0 0 1 1 0 0 1 1 0 0 0 0 0 0 1 1 0 0 1 1 0 0 1 1 0 0 1 1 1 1 1 1 1 1 0 0 1 1 0 0 1 1 1 1 0 0 1 1 0 0 1 1 1 1 1 1 0 0 1 1 0 0 2 2 1 1 1 1 1 1 1 1 1 1 1 1 1 1 1 1 1 1 2 1 1 1 1 1 1 1 1 1 1 1 2 2 2 2 2 2 0 0 0 0 0 0 0 0 2 2 2 2 0 0 1 1 1 1 1 1 1 1 0 0 0 0 0 0 0 0 0 2 2 2 2 2 2 0 0 0 0 0 0 2 2 1 2 1 1 1 1 1 1 1 1 1 1 1 1 1 1 1 1 1 1 1 1 2 2 1 1 2 1 1 1 2 2 2 2 1 1 1 1 1 1 1 1 1 1 1 1 1 1 1 1 2 1 1 1 1 1 1 1 1 1 1 1 1 1 2 2 2 2 2 2 2 1 2 2 2 2 2 2 2 2 0 0 0 0 0 1 1 1 1 1 1 1 1 0 1 1 0 0 0 2 1 2 2 2 2 2 2 0 1 1 1 1 0 0 0 0 1 1 1 1 0 0 1 1 1 1 1 1 1 1 1 1 1 1 1 1 1 1 1 1 1 1 1 1 1 1 1 1 1 1 1 1 1 1 1 1 0 0 0 1 1 1 1 1 1 1 1 0 0 0 0 0 0 0 0 0 1 1 1 1 1 1 1 1 1 1 1 1 1 1 0 1 1 1 1 1 1 1 2 2 2 2 1 1 1 1 1 1 2 2 1 1 1 1 1 1 2 2 2 2 1 1 1 1 2 2 1 1 2 2 2 2 2 2 2 2 2 2 2 2 1 1 1 1 1 1 1 1 1 1 1 1 0 0 1 1 0 1 1 0 0 2 2 1 1 2 2 2 2 0 0 0 1 1 1 1 1 1 2 2 2 2 2 2 2 2 2 2 2 2 2 2 0 0 0 0 0 0 0 0 0 0 1 1 2 2 2 2 2 2 2 2 0 0 1 1 0 1 0 0 0 0 0 1 1 1 1 1 1 0 0 1 1 1 1 1 1 1 1 1 1 1 1 1 1 0 0 1 1 1 1 1 1 1 1 1 1 1 1 1 1 1 1 1 1 1 1 1 1 1 1 1 1 0 0 1 1 1 1 1 1 1 0 1 1 1 1 1 1 1 1 1 1 1 1 1 1 1 1 1 1 1 1 1 1 1 1 1 1 1 1 1 1 1 1 1 1 1 1 1 1 1 1 1 1 1 1 1 1 1 1 1 1 1 1 1 1 1 1 2 2 2 2 1 1 1 1 1 1 1 1 1 1 1 1 1 1 1 1 1 1 1 1 1 1 1 1 1 1 1 1 1 1 0 0 2 2 0 0 1 1 0 1 1 1 2 2 2 2 1 1 1 1 1 1 2 2 2 2 1 1 1 1 2 2 1 1 1 1 0 0 1 1 1 1 2 2 2 2 1 1 2 2 1 1 1 1 1 1 1 1 1 1 1 1 1 1 0 0 1 1 1 1 1 1 1 1 1 1 1 1 1 1 1 1 1 1 1 1 0 1 1 1 1 0 0 2 2 1 1 2 2 1 1 0 0 1 1 2 2 0 0 2 2 0 0 0 0 0 1 0 2 2 1 1 1 1 1 1 1 1 1 1 1 1 1 0 1 1 1 1 1 1 1 1 1 1 1 1 1 1 1 1 1 1 2 2 2 2 1 1 1 1 1 1 1 1 0 0 1 1 1 1 1 1 1 1 1 1 2 2 0 2 2 2 2 1 1 1 1 0 0 1 1 1 1 2 2 1 1 2 2 2 2 2 2 1 1 0 0 1 1 0 0 0 0 0 0 0 0 1 1 0 0 2 2 1 1 1 1 0 2 2 2 2 2 1 0 0 1 1 1 1 2 2 2 2 2 2 1 2 2 2 1 1 1 1 2 2 2 2 0 0 2 2 2 2 2 2 0 1 1 0 0 0 2 2 2 2 2 2 0 0 0 0 2 2 2 2 1 1 1 1 2 2 2 2 2 2 2 2 0 0 0 1 1 1 1 1 1 0 0 1 1 1 1 0 1 1 1 1 0 1 1 1 1 1 1 1 2 1 0 0 0 0 0 0 0 1 1 1 1 2 2 1 1 1 1 1 1 0 1 1 1 2 1 1 1 1 1 1 1 1 0 0 0 0 0 0 1 1 1 1 1 1 1 1 0 0 1 1 0 0 0 0 1 2 0 0 0 0 1 1 0 0 0 0 1 1 1 1 0 0 0 0 0 0 0 0 0 0 2 2 0 1 0 0 2 2 2 2 2 2 0 0 0 0 0 0 2 2 2 1 1 1 1 1 2 2 0 0 1 1 1 1 1 1 1 1 1 1 1 1 1 1 1 1 1 1 0 0 0 0 1 1 1 1 0 0 1 2 1 1 1 1 0 0 0 0 1 1 0 0 1 1 1 1 1 1 2 2 1 1 1 1 1 1 1 1 1 1 1 1 1 1 1 1 1 1 0 0 0 1 1 0 0 1 1 0 0 0 0 0 0 0 0 0 0 0 0 0 0 0 0 0 0 0 0 0 0 0 0 2 1 2 2 1 1 0 0 0 0 1 1 0 1 2 2 1 1 1 1 0 0 0 0 0 0 0 0 2 2 2 2 1 1 0 0 0 0 1 1 1 1 0 0 1 1 1 1 1 1 1 1 2 2 1 1 1 1 1 1 1 1 1 1 1 1 2 2 1 1 1 1 0 0 1 1 1 1 1 1 1 1 1 1 1 1 1 1 2 2 1 1 0 1 1 1 1 1 1 1 1 2 2 1 1 1 1 1 1 2 2 2 2 2 2 2 2 1 1 1 1 1 1 2 1 1 2 0 0 1 1 0 0 1 1 2 2 2 2 1 1 2 2 2 2 0 0 1 1 1 1 2 2 1 1 1 1 1 1 1 1 1 1 1 1 1 1 1 1 1 1 1 1 1 1 1 1 1 0 1 1 1 1 2 2 2 2 2 2 1 1 2 2 1 1 1 1 2 2 0 1 0 1 1 1 0 0 1 1 0 0 0 0 1 1 0 0 2 2 2 2 0 0 0 1 1 1 1 2 2 2 2 1 1 1 1 0 0 0 0 2 2 1 1 1 1 1 1 2 2 1 1 1 1 0 1 1 1 1 1 1 1 1 1 1 1 2 2 1 1 1 1 2 2 0 0 1 1 1 1 1 1 0 0 2 2 1 1 1 1 1 1 1 1 1 1 1 1 1 2 1 1 1 1 2 2 1 1 2 2 2 2 1 1 1 1 0 0 1 1 1 1 1 1 1 1 0 0 1 1 2 2 1 1 1 1 1 1 1 1 1 1 0 0 1 1 1 1 1 1 1 1 1 1 1 1 1 1 1 1 1 1 2 2 1 1 2 2 2 2 1 1 0 1 1 2 2 1 1 2 2 2 1 1 1 2 2 0 0 0 0 1 1 1 1 1 1 1 1 1 1 1 1 1 1 1 1 2 2 1 1 1 1 1 1 1 1 1 1 1 1 1 1 2 2 1 1 2 2 1 1 0 0 2 2 1 1 1 1 1 1 1 1 1 1 2 2 2 2 0 1 1 1 1 1 1 1 1 1 1 1 1 2 2 1 1 0 0 1 1 1 1 1 1 1 1 1 1 1 1 1 1 2 2 2 2 2 2 2 2 2 2 2 2 2 2 1 1 0 0 1 1 2 2 2 2 1 1 1 1 1 1 1 1 1 1 1 1 1 1 1 1 1 1 1 1 0 0 0 0 0 0 1 1 2 2 0 0 1 1 0 0 1 1 1 1 0 0 0 0 1 1 1 1 1 1 1 1 1 1 1 1 1 1 1 1 2 2 2 2 2 2 2 2 1 1 2 2 2 2 0 0 2 1 2 2 0 0 2 2 2 2 1 2 0 0 1 1 1 1 0 0 0 0 0 0 1 1 0 0 1 1 1 1 1 2 2 2 1 1 1 1 1 1 1 1 1 1 1 1 1 1 1 1 0 0 0 0 2 2 2 2 2 2 1 1 2 2 2 2 1 1 1 1 1 1 1 1 1 1 1 1 1 1 1 1 0 1 1 1 1 1 1 1 1 1 1 1 0 0 0 0 1 1 1 1 1 1 0 0 0 0 0 0 0 0 0 0 0 1 1 1 0 2 2 2 2 0 0 2 2 1 1 1 1 0 0 1 1 1 1 1 1 1 1 0 0 1 1 1 1 0 0 1 1 0 1 1 1 1 1 1 1 1 1 1 0 0 1 1 2 2 0 0 2 2 1 1 1 1 1 1 1 1 1 1 2 2 1 1 1 1 1 1 2 2 1 2 1 1 1 1 1 1 1 1 2 2 1 1 1 1 0 0 0 0 1 1 1 1 2 2 1 1 1 1 0 1 0 0 1 1 1 1 1 1 1 1 0 0 2 2 1 1 1 1 0 0 1 1 1 1 1 1 2 2 2 2 0 0 0 0 0 0 1 1 2 2 1 1 2 2 2 2 2 2 2 2 2 2 1 1 1 1 1 1 1 1 2 2 2 2 2 2 2 2 2 2 2 2 1 1 1 1 1 1 1 1 1 1 1 1 1 1 1 1 1 1 0 0 1 1 2 2 1 1 0 0 0 0 1 1 0 0 1 1 1 1 1 1 1 1 2 2 1 1 1 1 1 1 0 0 0 0 1 1 2 2 1 1 1 1 1 1 1 1 1 1 1 1 1 0 1 1 1 1 0 0 1 1 1 2 1 1 1 1 1 1 0 0 0 0 0 0 0 1 1 1 1 1 1 1 0 0 0 0 0 0 1 1 1 1 1 2 1 1 1 1 2 2 1 1 0 0 0 0 2 2 2 1 2 2 1 1 1 1 2 2 1 1 1 1 1 1 0 0 1 1 1 1 1 1 1 1 0 0 2 2 1 1 2 2 0 0 0 0 0 0 1 1 1 1 1 1 1 1 0 0 1 1 1 1 1 0 1 1 2 2 1 1 2 2 1 1 1 1 1 0 1 1 1 1 0 0 1 1 0 0 1 1 1 1 2 2 1 1 1 1 0 0 1 1 0 0 1 1 1 1 1 1 2 2 1 1 1 1 0 0 2 2 0 0 1 1 1 1 2 2 1 1 1 1 0 0 2 2 1 1 2 2 0 0 2 2 1 1 1 1 1 1 1 1 1 1 0 0 0 0 1 1 1 1 1 1 2 2 2 2 0 0 1 1 1 1 0 0 2 2 1 1 0 0 0 0 2 2 1 1 0 0 2 2 1 1 0 0 1 1 2 2 1 1 1 1 1 1 1 0 1 1 0 0 1 1 1 1 0 0 1 1 1 1 0 0 1 1 1 1 1 1 1 1 1 1 0 0 1 1 0 0 0 0 1 2 2 2 1 1 0 0 2 2 0 0 0 0 1 2 1 1 2 2 1 1 2 2 2 2 1 0 0 2 2 2 2 2 2 1 1 2 2 2 2 2 2 1 1 0 0 0 0 1 1 2 2 1 1 1 1 1 1 1 1 1 1 1 2 1 2 1 2 1 1 1 1 1 1 1 1 1 1 1 1 0 0 1 1 1 1 1 1 1 1 1 2 1 1 1 1 1 1 1 1 1 1 1 1 1 1 1 1 1 1 0 0 2 2 2 2 1 1 1 1 1 1 1 2 2 2 0 0 1 0 0 0 2 2 1 1 1 1 1 1 1 2 0 0 1 1 1 1 1 1 1 1 2 2 1 1 1 1 1 1 1 1 1 1 1 1 1 1 1 1 2 2 1 1 0 1 1 1 1 2 0 0 1 1 1 1 0 0 1 1 1 1 0 0 0 0 0 0 2 2 1 1 1 1 0 1 1 1 1 1 0 0 0 0 0 0 2 2 1 1 2 2 2 2 1 1 0 0 0 0 1 1 1 1 1 1 2 2 1 1 1 1 0 0 2 2 1 1 0 0 0 0 2 2 0 0 1 1 1 1 1 1 1 1 1 1 1 1 0 0 1 1 1 1 1 1 1 1 0 0 1 1 2 2 1 1 1 1 1 1 1 1 1 1 2 2 1 1 0 0 1 1 1 1 1 1 1 1 0 0 1 1 1 1 1 1 2 2 2 2 1 1 0 0 1 1 2 2 1 1 2 2 2 2 2 2 2 2 1 1 1 1 1 1 1 1 1 1 1 1 1 1 1 1 1 1 1 2 2 1 1 1 1 2 2 2 2 0 0 1 1 1 1 1 1 0 0 2 2 2 2 1 1 0 0 1 1 1 1 1 1 1 1 1 1 1 1 0 0 1 1 1 1 1 1 1 2 2 2 1 1 1 1 1 1 1 1 1 1 1 1 2 2 1 1 1 1 2 2 1 1 2 2 1 1 0 0 1 1 1 1 1 1 2 2 2 2 2 2 1 1 1 1 2 2 2 2 1 1 1 1 2 2 1 1 0 1 1 0 0 1 1 1 1 1 1 2 2 1 1 1 1 2 1 2 2 1 1 1 1 1 1 1 1 1 1 0 0 0 0 2 2 1 1 1 1 0 0 0 0 2 2 2 2 1 1 2 2 1 1 1 1 0 0 0 0 1 1 2 2 2 2 2 2 0 2 2 1 1 0 0 1 1 2 2 0 0 1 1 1 1 1 1 2 2 1 1 1 1 1 1 0 0 0 0 1 1 1 1 2 2 1 1 1 1 1 1 1 0 1 1 1 1 1 1 1 1 1 1 1 1 1 1 1 1 1 1 1 1 1 1 0 0 1 1 0 0 0 0 2 2 2 2 0 0 1 1 0 0 2 2 1 1 1 1 0 0 1 1 2 2 1 1 1 1 2 2 1 1 2 2 2 2 2 2 1 1 0 2 2 2 2 2 2 2 2 0 0 1 1 1 1 0 0 0 0 0 0 0 0 1 1 1 1 1 1 1 1 1 1 1 1 2 2 1 1 1 1 1 1 1 1 0 0 1 1 1 1 1 1 1 1 1 1 0 0 0 0 0 0 0 0 1 1 1 1 1 1 2 2 1 1 1 1 1 1 1 1 1 1 1 1 0 0 1 1 0 0 1 1 1 1 1 1 0 0 2 2 0 0 1 1 1 1 0 0 1 1 2 2 1 1 1 1 0 0 1 1 1 1 2 2 1 1 1 1 0 0 1 1 1 1 1 1 1 1 1 1 0 0 1 1 1 1 2 2 1 1 2 2 1 1 1 1 1 1 1 1 2 2 2 2 1 1 1 1 1 1 1 1 1 1 1 1 1 1 1 1 1 1 1 0 1 1 1 1 1 1 1 1 0 0 1 1 1 1 1 1 1 1 1 1 1 1 0 0 0 0 0 0 1 1 1 1 1 0 1 1 1 1 1 1 1 1 1 1 0 1 1 1 2 2 1 1 1 1 1 1 0 0 1 1 1 1 1 1 2 2 0 0 1 1 1 1 1 1 1 1 1 1 1 1 1 1 2 2 1 1 0 0 1 1 1 1 1 1 1 1 1 1 2 2 1 1 1 1 1 1 2 2 0 0 0 0 0 0 0 0 1 1 2 2 1 1 0 0 0 0 1 1 2 2 1 1 1 1 1 1 1 1 0 0 2 2 2 2 2 2 1 1 1 1 1 1 1 1 1 1 1 1 0 0 1 1 1 1 1 1 1 1 2 2 1 1 1 2 1 1 1 1 1 0 0 0 1 1 1 1 1 1 1 1 1 1 1 1 1 1 0 0 1 1 1 1 1 1 0 0 0 0 1 1 1 1 1 1 2 2 1 1 0 0 2 2 2 2 0 0 1 1 1 1 0 0 0 0 2 2 2 2 0 0 0 0 1 1 1 1 1 1 1 1 1 1 2 2 2 2 1 1 0 0 2 2 2 2 0 0 0 0 1 1 1 1 1 1 0 0 2 2 1 1 1 1 0 0 1 1 1 1 1 1 1 1 1 1 0 0 1 1 1 1 1 1 2 2 1 1 1 1 1 1 1 1 0 0 1 1 0 0 1 1 1 1 2 2 1 1 0 0 2 2 2 2 0 0 0 0 0 0 2 2 2 2 2 2 1 1 1 1 0 0 1 1 1 1 1 1 1 1 2 2 2 2 2 2 2 2 2 2 1 1 1 2 1 1 1 1 1 1 1 1 1 1 1 1 0 0 1 1 2 2 2 2 2 2 0 0 2 2 0 0 2 2 1 1 1 1 1 1 1 1 0 0 1 1 1 1 1 1 1 1 1 1 2 2 2 2 2 2 1 1 0 0 0 0 2 2 2 2 1 1 1 1 1 1 2 2 2 2 2 2 1 2 2 2 2 2 2 2 2 2 1 1 2 2 2 2 2 2 1 1 1 1 1 1 0 0 1 1 1 1 1 1 1 1 0 0 1 2 2 2 2 2 2 2 1 1 2 2 1 1 0 0 0 0 1 1 1 1 2 2 0 0 0 0 0 0 1 1 1 1 1 1 0 0 0 1 1 1 1 1 1 0 0 2 2 0 0 0 1 0 0 2 2 1 1 0 0 1 1 1 1 1 1 1 1 0 0 0 0 0 0 1 1 1 1 0 0 1 1 1 1 1 1 1 1 1 1 1 1 1 1 2 2 2 2 2 2 2 2 2 2 0 0 0 0 2 2 1 1 2 2 0 1 1 1 1 1 1 1 2 2 2 2 1 1 1 1 0 0 0 0 0 0 2 2 2 2 1 1 1 1 1 1 2 2 1 1 1 1 1 1 2 2 0 0 2 2 2 2 1 1 1 1 1 1 1 1 1 1 1 1 0 1 1 1 1 1 2 2 2 2 1 1 1 1 1 1 1 1 1 1 0 0 1 1 1 1 1 1 2 2 1 1 1 1 1 1 1 1 1 1 1 1 0 0 0 0 1 1 1 1 1 1 2 2 2 2 2 2 2 2 1 1 1 1 2 2 2 2 2 2 1 1 1 1 1 1 0 0 1 1 1 1 1 1 1 1 0 0 0 0 1 1 1 1 2 2 2 2 2 2 2 2 2 2 2 2 0 0 0 0 0 0 0 0 0 0 1 1 1 1 1 1 1 1 1 1 0 0 2 2 1 1 0 0 1 1 1 1 1 1 1 1 1 1 1 1 0 0 1 1 1 1 0 0 2 2 1 1 1 1 1 1 1 1 1 0 0 0 1 1 1 1 1 1 1 1 0 0 2 2 0 0 0 0 0 0 1 1 0 0 1 1 1 1 1 1 2 2 2 2 2 2 2 2 0 0 2 2 1 1 0 0 0 0 1 1 2 2 2 2 1 1 1 1 0 0 0 0 1 1 1 1 1 1 1 1 2 2 1 1 1 1 1 1 2 2 1 1 1 1 2 2 1 1 1 1 0 0 0 0 1 1 1 1 1 1 2 2 1 1 1 1 1 1 1 1 1 1 1 1 0 0 1 1 1 1 1 1 0 0 1 1 0 0 0 0 1 1 1 1 2 2 1 1 1 1 1 1 0 0 1 1 1 1 0 0 0 0 2 2 2 2 1 1 2 2 2 2 1 1 1 1 0 0 0 0 1 1 0 0 0 0 0 0 1 1 2 2 1 1 0 0 1 1 0 0 0 0 1 1 1 0 0 0 1 1 0 0 0 0 1 1 0 0 1 1 1 1 1 1 1 1 1 1 1 1 1 1 2 2 1 1 1 1 1 1 2 2 2 2 2 2 1 1 0 0 2 2 1 1 1 1 1 1 1 0 0 0 0 1 1 1 1 1 1 1 1 1 1 1 1 2 2 2 2 2 2 2 2 0 0 0 0 0 0 0 0 0 0 0 0 0 1 1 0 0 0 0 0 0 1 1 1 1 1 1 0 0 1 1 2 2 2 2 2 2 1 1 0 0 1 1 1 1 1 1 2 2 1 1 1 1 2 2 0 0 0 0 0 0 2 2 2 2 2 2 2 2 1 1 1 1 1 1 1 1 1 1 1 1 1 1 1 1 0 0 0 0 0 0 1 1 1 1 0 0 1 1 1 1 1 1 2 2 1 1 1 1 1 1 0 0 1 1 0 0 1 1 0 0 1 1 1 1 2 2 2 2 1 1 1 1 0 0 0 0 0 0 2 2 0 0 1 1 1 1 1 1 1 1 1 1 2 2 1 1 1 1 0 0 1 1 0 0 0 0 2 2 1 1 1 1 0 0 1 1 2 2 1 1 1 1 1 1 1 1 1 1 2 2 1 1 0 0 1 1 1 1 1 1 2 2 1 1 1 1 1 1 0 0 1 0 0 0 1 0 0 0 2 2 2 2 1 1 1 1 1 1 1 1 0 0 1 1 2 2 2 2 2 2 0 0 0 0 1 1 2 2 2 2 2 2 2 2 1 1 1 1 0 0 0 0 0 0 0 0 0 0 1 1 1 1 1 1 0 0 1 1 1 1 0 0 0 0 0 0 0 0 0 0 1 1 1 1 1 1 1 1 1 1 1 1 0 0 1 1 1 1 1 1 0 0 0 0 0 0 0 0 1 1 2 2 0 0 0 0 0 0 0 0 0 1 1 1 1 1 1 1 1 1 1 1 1 1 1 2 2 1 1 1 1 1 1 1 1 1 1 1 1 2 2 2 2 1 1 1 1 1 1 1 1 2 2 1 1 1 1 1 1 0 0 0 0 2 2 2 2 0 0 0 0 0 0 1 1 1 1 1 1 1 1 0 0 1 1 1 1 1 1 1 1 2 2 0 0 1 1 1 1 1 1 0 0 2 2 0 0 1 1 1 1 1 1 1 1 1 1 1 1 1 1 1 1 1 1 1 1 1 1 1 1 1 1 1 1 1 1 1 1 1 1 1 1 1 0 0 1 1 1 1 0 1 1 1 0 1 1 1 1 1 1 1 1 1 1 1 1 1 1 1 1 1 1 1 1 1 1 1 1 1 1 1 1 1 1 1 1 1 1 1 1 1 1 1 1 1 1 1 1 1 1 1 1 1 1 1 1 1 1 1 1 1 1 1 1 1 1 1 1 1 1 1 0 1 1 0 1 1 1 1 1 1 1 1 1 1 1 1 1 1 1 1 1 1 1 1 1 1 1 1 1 1 1 1 1 1 1 1 1 1 1 1 1 1 1 1 1 1 1 1 1 1 1 1 1 1 1 1 1 1 1 1 1 1 1 1 1 1 1 1 1 1 1 1 1 0 0 1 0 0 1 1 1 1 1 1 1 1 1 1 1 1 1 1 1 1 1 1 1 1 1 1 1 1 1 1 1 1 1 1 1 1 1 1 1 1 1 1 1 1 1 1 1 1 1 1 1 1 1 1 1 1 1 1 0 0 1 1 0 0 1 1 1 1 0 1 0 1 1 1 1 0 0 1 1 1 0 1 1 1 1 1 1 1 1 1 1 1 1 1 1 1 1 1 1 1 1 1 1 1 1 1 1 1 1 1 1 1 1 1 1 1 1 1 1 1 1 1 1 1 1 1 1 1 1 1 1 1 1 1 1 1 1 1 1 1 1 1 1 1 1 1 1 1 1 1 1 1 1 1 1 1 1 1 0 0 1 0 0 0 0 1 1 1 0 0 1 1 1 1 1 1 1 1 1 1 1 1 1 1 1 1 1 1 1 1 1 1 1 1 1 1 1 1 1 1 1 1 1 1 1 1 1 1 1 1 1 1 1 1 1 1 1 1 1 1 1 1 1 1 1 1 0 1 1 0 0 1 1 1 1 1 1 1 1 1 1 1 1 1 1 1 1 1 1 0 0 0 0 0 0 1 0 0 0 1 1 1 0 0 0 1 1 1 1 1 1 1 1 1 1 1 1 1 1 1 1 1 1 1 1 1 1 1 1 1 1 1 1 1 1 1 1 1 1 1 0 0 0 1 0 0 0 1 1 1 1 1 1 1 1 1 1 1 1 1 1 1 0 0 0 0 0 0 1 1 1 1 1 0 0 0 1 1 0 0 0 1 1 1 1 1 1 1 1 1 1 1 1 1 1 1 1 1 1 1 1 1 1 1 1 1 1 1 1 1 1 1 1 0 0 0 1 1 1 0 0 0 1 1 1 1 1 1 1 1 1 1 1 1 1 1 1 1 1 1 1 1 1 1 1 1 1 1 1 1 1 1 1 1 1 1 1 1 1 1 1 1 1 1 1 1 1 1 1 1 1 1 1 0 0 0 1 0 0 0 1 1 1 1 1 1 1 1 1 0 0 0 1 1 1 0 0 0 1 1 1 1 0 0 0 1 1 0 0 0 1 1 0 0 0 1 1 1 0 0 0 1 1 1 1 1 1 1 1 1 1 1 1 1 1 1 1 1 1 1 1 0 0 0 1 1 1 0 0 0 1 1 1 1 0 0 0 1 1 1 0 0 0 1 1 1 1 1 1 1 1 1 0 0 0 1 1 1 0 0 0 1 1 1 1 1 1 1 1 1 0 0 0 1 0 0 0 1 1 1 1 1 1 1 1 1 1 1 1 1 1 1 1 1 1 1 1 1 1 1 1 1 1 0 0 0 1 0 0 0 1 1 1 1 1 1 1 1 1 1 1 1 0 0 0 1 1 1 0 0 0 1 1 1 1 1 1 1 0 0 0 0 0 0 1 1 1 1 1 1 1 1 1 1 1 1 1 1 1 1 1 1 1 1 1 1 1 1 1 1 1 1 1 1 1 1 1 1 1 1 1 1 1 1 1 1 1 1 1 1 1 1 1 1 1 1 1 1 1 1 1 1 1 1 0 0 0 1 1 1 0 0 0 1 1 1 1 1 0 0 0 1 1 0 0 0 1 1 1 0 0 0 1 1 0 0 0 1 1 1 0 0 0 1 1 0 0 0 1 1 1 1 1 1 1 1 1 1 1 1 1 1 1 1 1 1 1 1 1 1 1 1 1 1 1 1 1 0 0 0 1 1 1 0 0 0 1 1 1 1 1 1 1 1 1 1 1 1 1 1 1 1 1 1 1 1 1 1 1 1 1 1 1 1 1 0 0 0 1 1 0 0 0 1 1 1 1 1 0 0 0 1 1 0 0 0 1 1 1 0 0 0 1 1 0 0 0 1 1 0 0 0 1 1 1 0 0 0 1 1 1 0 0 0 1 1 0 0 0 1 1 1 1 1 1 1 1 1 0 0 0 1 1 1 0 0 0 1 1 1 1 1 1 1 1 1 1 1 1 1 1 1 1 1 0 0 0 1 1 0 0 0 1 1 1 1 1 1 1 1 1 0 0 0 1 1 0 0 0 1 1 1 1 1 1 1 1 1 1 1 1 1 1 1 1 1 1 1 1 1 1 1 1 0 0 0 1 1 0 0 0 1 1 1 1 1 1 1 1 </DataArray>
</CellData>
</Piece>
</UnstructuredGrid>
</VTKFile>