<?xml version="1.0"?>
<VTKFile type="UnstructuredGrid"  version="0.1"  >
<UnstructuredGrid>
<Piece  NumberOfPoints="1333" NumberOfCells="2365">
<Points>
<DataArray  type="Float64"  NumberOfComponents="3"  format="ascii">-0.4960573506572389 0.06266661678215227 0  -0.4960573506572389 -0.06266661678215214 0  -0.4648882429441257 -0.184062276342339 0  -0.4045084971874739 -0.2938926261462363 0  -0.3187119948743448 -0.3852566213878947 0  -0.2128896457825361 -0.4524135262330099 0  -0.09369065729286231 -0.4911436253643444 0  0.03139525976465642 -0.4990133642141358 0  0.1545084971874736 -0.4755282581475768 0  0.2679133974894984 -0.4221639627510075 0  0.3644843137107056 -0.3422735529643445 0  0.4381533400219316 -0.2408768370508581 0  0.4842915805643155 -0.1243449435824277 0  0.5 0 0  0.4842915805643155 0.1243449435824274 0  0.4381533400219318 0.2408768370508577 0  0.3644843137107058 0.3422735529643443 0  0.2679133974894983 0.4221639627510075 0  0.1545084971874737 0.4755282581475768 0  0.03139525976465676 0.4990133642141358 0  -0.0936906572928623 0.4911436253643444 0  -0.2128896457825364 0.4524135262330097 0  -0.3187119948743449 0.3852566213878946 0  -0.4045084971874737 0.2938926261462366 0  -0.4648882429441257 0.1840622763423391 0  -0.9979453927503363 0.06407021998071323 0  -0.9979453927503363 -0.06407021998071299 0  -0.9815591569910653 -0.1911586287013723 0  -0.9490557470106686 -0.3151082180236206 0  -0.9009688679024191 -0.433883739117558 0  -0.8380881048918408 -0.5455349012105485 0  -0.7614459583691346 -0.6482283953077882 0  -0.672300890261317 -0.7402779970753153 0  -0.57211666012217 -0.8201722545969556 0  -0.4625382902408353 -0.886599306373 0  -0.3453650544213073 -0.9384684220497606 0  -0.2225209339563146 -0.9749279121818236 0  -0.09602302590768157 -0.9953791129491982 0  0.03205157757165486 -0.9994862162006879 0  0.1595998950333784 -0.9871817834144503 0  0.284527586631032 -0.9586678530366608 0  0.4047833431223937 -0.9144126230158125 0  0.5183925683105245 -0.8551427630053464 0  0.6234898018587334 -0.7818314824680299 0  0.718349350097727 -0.6956825506034869 0  0.8014136218679559 -0.598110530491217 0  0.8713187041233894 -0.4907175520039379 0  0.9269167573460216 -0.3752670048793746 0  0.9672948630390293 -0.2536545839095075 0  0.9917900138232461 -0.1278771616845066 0  1 0 0  0.9917900138232462 0.127877161684506 0  0.9672948630390295 0.2536545839095073 0  0.9269167573460217 0.3752670048793741 0  0.8713187041233894 0.4907175520039379 0  0.8014136218679566 0.598110530491216 0  0.7183493500977276 0.6956825506034864 0  0.6234898018587336 0.7818314824680298 0  0.5183925683105252 0.8551427630053461 0  0.4047833431223938 0.9144126230158125 0  0.2845275866310324 0.9586678530366606 0  0.1595998950333795 0.9871817834144501 0  0.03205157757165533 0.9994862162006879 0  -0.09602302590768176 0.9953791129491982 0  -0.2225209339563143 0.9749279121818236 0  -0.3453650544213075 0.9384684220497604 0  -0.4625382902408351 0.8865993063730001 0  -0.5721166601221698 0.8201722545969558 0  -0.6723008902613169 0.7402779970753155 0  -0.7614459583691342 0.6482283953077888 0  -0.8380881048918406 0.5455349012105487 0  -0.900968867902419 0.4338837391175582 0  -0.9490557470106685 0.3151082180236213 0  -0.9815591569910653 0.1911586287013725 0  -1 1 0  -1 -1 0  1 -1 0  1 1 0  -1 0 0  0 -1 0  1 -0.512561759845706 0  1 0.5125617598457033 0  0 1 0  -0.9979453927503363 1.179611963664229e-16 0  -1 -0.5 0  -1 0.5 0  -0.03198572416801335 -0.9974326645749431 0  0.5 -1 0  -0.5 -1 0  1 -0.2562808799228529 0  1 0.2562808799228516 0  -0.03198572416801321 0.9974326645749431 0  0.5 1 0  -0.5 1 0  -1 -0.25 0  -1 0.25 0  3.292670182075338e-05 -0.9984594403878155 0  0.25 -1 0  -0.25 -1 0  1 -0.1281404399614265 0  1 -0.3844213198842794 0  1 0.1281404399614258 0  1 0.3844213198842775 0  3.29267018210587e-05 0.9984594403878155 0  0.25 1 0  -0.25 1 0  -0.965307452000867 -0.2531334233624964 0  -1 -0.125 0  -1 -0.375 0  -0.9653074520008669 0.2531334233624969 0  -1 0.125 0  -1 0.375 0  0.2220637408322052 -0.9729248182255555 0  0.125 -1 0  0.375 -1 0  -0.283942994188811 -0.9566981671157921 0  -0.125 -1 0  -0.375 -1 0  0.222063740832206 0.9729248182255553 0  0.125 1 0  0.375 1 0  -0.2839429941888109 0.956698167115792 0  -0.125 1 0  -0.375 1 0  -0.9897522748707008 -0.1276144243410426 0  -1 -0.0625 0  -1 -0.1875 0  -1 -0.3125 0  -0.9897522748707008 0.1276144243410429 0  -1 0.0625 0  -1 0.1875 0  -1 0.3125 0  0.09582573630251663 -0.9933339998075691 0  0.0625 -1 0  0.1875 -1 0  0.3125 -1 0  -0.1592719799319981 -0.9851535125655109 0  -0.0625 -1 0  -0.1875 -1 0  -0.3125 -1 0  0.09582573630251744 0.993333999807569 0  0.0625 1 0  0.1875 1 0  0.3125 1 0  -0.159271979931998 0.9851535125655109 0  -0.0625 1 0  -0.1875 1 0  -0.3125 1 0  -0.9938488338105186 -0.09584232216087782 0  -0.9979453927503363 -0.03203510999035644 0  -1 -0.09375 0  -0.9856557159308831 -0.1593865265212075 0  -1 -0.15625 0  -0.9938488338105186 0.09584232216087807 0  -0.9979453927503363 0.03203510999035668 0  -1 0.09375 0  -0.9856557159308831 0.1593865265212077 0  -1 0.15625 0  0.1277128156679475 -0.9902578916110096 0  0.06393865693708575 -0.9964101080041285 0  0.03125 -1 0  0.09375 -1 0  0.1908318179327918 -0.980053300820003 0  0.21875 -1 0  0.15625 -1 0  -0.1276475029198398 -0.9902663127573545 0  -0.06400437503784746 -0.9964058887620706 0  -0.03125 -1 0  -0.09375 -1 0  -0.1908964569441563 -0.9800407123736672 0  -0.21875 -1 0  -0.15625 -1 0  0.1277128156679485 0.9902578916110095 0  0.06393865693708639 0.9964101080041284 0  0.03125 1 0  0.09375 1 0  0.1908318179327927 0.9800533008200027 0  0.21875 1 0  0.15625 1 0  -0.1276475029198399 0.9902663127573545 0  -0.06400437503784749 0.9964058887620706 0  -0.03125 1 0  -0.09375 1 0  -0.1908964569441562 0.9800407123736672 0  -0.21875 1 0  -0.15625 1 0  -0.9918005543406097 -0.1117283732509602 0  -1 -0.03125 0  -0.9979453927503363 -0.04805266498553472 0  -0.9958971132804275 -0.07995627107079541 0  -1 -0.109375 0  -1 -0.078125 0  -0.9918005543406097 0.1117283732509605 0  -1 0.03125 0  -0.9979453927503363 0.04805266498553495 0  -0.9958971132804275 0.07995627107079564 0  -1 0.109375 0  -1 0.078125 0  0.1117692759852321 -0.9917959457092893 0  0.04799511725437031 -0.9979481621024082 0  0.01604225213673781 -0.9989728282942517 0  0.046875 -1 0  0.0798821966198012 -0.9948720539058489 0  0.109375 -1 0  0.078125 -1 0  -0.1118352644137607 -0.9928227128532764 0  -0.04799504960293041 -0.9969192766685069 0  -0.0159763987330963 -0.9979460524813792 0  -0.046875 -1 0  -0.08001370047276452 -0.9958925008556344 0  -0.109375 -1 0  -0.078125 -1 0  0.111769275985233 0.9917959457092893 0  0.04799511725437086 0.9979481621024082 0  0.0160422521367382 0.9989728282942517 0  0.046875 1 0  0.07988219661980192 0.9948720539058487 0  0.109375 1 0  0.078125 1 0  -0.1118352644137608 0.9928227128532764 0  -0.04799504960293036 0.9969192766685069 0  -0.01597639873309608 0.9979460524813792 0  -0.046875 1 0  -0.08001370047276463 0.9958925008556344 0  -0.109375 1 0  -0.078125 1 0  -0.9979453927503363 -0.01601755499517816 0  -1 -0.046875 0  -0.9979453927503363 -0.05606144248312386 0  -0.9948729735454731 -0.08789929661583662 0  -0.9969212530153819 -0.07201324552575419 0  -1 -0.0703125 0  -1 -0.0859375 0  -0.9979453927503363 0.0160175549951784 0  -1 0.046875 0  -0.9979453927503363 0.05606144248312409 0  -0.9948729735454731 0.08789929661583686 0  -0.9969212530153819 0.07201324552575444 0  -1 0.0703125 0  -1 0.0859375 0  0.05596688709572803 -0.9971791350532684 0  0.015625 -1 0  0.02404691485419633 -0.9992295222474699 0  0.04002334741301258 -0.9987171891515481 0  0.0546875 -1 0  0.0390625 -1 0  0.07191042677844348 -0.9956410809549887 0  0.0703125 -1 0  -0.05599971232038894 -0.9966625827152887 0  -0.015625 -1 0  -0.02398106145055483 -0.9976893585281612 0  -0.03999038688547188 -0.9971759706217249 0  -0.0546875 -1 0  -0.0390625 -1 0  -0.08801836319022305 -0.9956358069024163 0  -0.1015625 -1 0  -0.07200903775530598 -0.9961491948088526 0  -0.0703125 -1 0  -0.0859375 -1 0  0.05596688709572863 0.9971791350532684 0  0.015625 1 0  0.02404691485419676 0.9992295222474699 0  0.0400233474130131 0.9987171891515481 0  0.0546875 1 0  0.0390625 1 0  0.07191042677844416 0.9956410809549885 0  0.0703125 1 0  -0.05599971232038892 0.9966625827152887 0  -0.015625 1 0  -0.02398106145055465 0.9976893585281612 0  -0.03999038688547178 0.9971759706217249 0  -0.0546875 1 0  -0.0390625 1 0  -0.08801836319022319 0.9956358069024163 0  -0.1015625 1 0  -0.07200903775530607 0.9961491948088526 0  -0.0703125 1 0  -0.0859375 1 0  -1 -0.015625 0  -0.9979453927503363 -0.0240263324927673 0  -0.9979453927503363 -0.04004388748794558 0  -1 -0.0546875 0  -1 -0.0390625 0  -0.9979453927503363 -0.06006583123191843 0  -0.9974333228828591 -0.06804173275323359 0  -1 -0.06640625 0  -1 -0.07421875 0  -1 0.015625 0  -0.9979453927503363 0.02402633249276754 0  -0.9979453927503363 0.04004388748794582 0  -1 0.0546875 0  -1 0.0390625 0  -0.9979453927503363 0.06006583123191866 0  -0.9974333228828591 0.06804173275323383 0  -1 0.06640625 0  -1 0.07421875 0  0.008037589419279281 -0.9987161343410336 0  0.0234375 -1 0  0.0280492462129256 -0.9993578692240789 0  0.04400923233369144 -0.9983326756269781 0  0.05198100217504917 -0.9975636485778383 0  0.05859375 -1 0  0.05078125 -1 0  0.03603746249233372 -0.999101702676118 0  0.03515625 -1 0  0.04296875 -1 0  -0.007971736015637774 -0.9982027464345974 0  -0.0234375 -1 0  -0.1039291451607211 -0.9941009129012373 0  0.008037589419279628 0.9987161343410336 0  0.0234375 1 0  0.02804924621292605 0.9993578692240789 0  0.04400923233369198 0.9983326756269781 0  0.05198100217504974 0.9975636485778383 0  0.05859375 1 0  0.05078125 1 0  0.03603746249233421 0.999101702676118 0  0.03515625 1 0  0.04296875 1 0  -0.00797173601563751 0.9982027464345974 0  -0.0234375 1 0  -0.1039291451607213 0.9941009129012373 0  -0.9979453927503363 -0.008008777497589022 0  -1 -0.0234375 0  -0.9979453927503363 -0.02803072124156187 0  -0.9979453927503363 -0.04404827623674015 0  -0.9979453
[...]
<CellData  Scalars="f">
<DataArray  type="Float64"  Name="f"  format="ascii">1 1 2 2 1 0 1 2 1 2 1 2 1 2 1 2 0 2 2 0 2 1 2 1 2 1 2 1 2 1 2 1 2 1 2 1 2 0 2 1 2 0 2 2 1 0 0 0 1 1 0 0 1 1 0 1 0 1 0 1 0 1 0 0 0 0 1 0 1 1 1 1 0 1 1 1 1 0 1 1 0 1 1 0 1 1 1 0 1 1 1 0 1 0 1 1 0 0 0 0 0 1 0 0 0 0 1 0 1 1 0 1 0 1 1 0 1 0 1 0 1 0 1 0 0 0 0 0 0 0 0 0 0 1 0 0 1 0 1 0 1 1 1 0 0 0 0 0 0 0 0 0 0 0 1 1 1 0 1 1 0 0 0 1 0 0 1 1 0 0 0 1 1 1 1 1 0 0 0 0 1 0 0 0 0 0 1 0 0 0 0 0 0 0 0 1 0 0 0 0 0 0 0 0 0 1 0 0 0 0 1 1 0 0 0 0 0 0 0 1 1 0 0 0 0 1 0 0 1 1 0 0 0 1 0 0 0 0 1 1 0 0 1 1 0 0 0 0 0 1 1 0 0 1 0 1 0 0 1 0 1 1 0 0 0 0 0 1 0 0 0 1 1 0 0 1 0 0 0 1 1 0 1 1 0 1 0 0 0 0 1 0 0 0 1 0 0 0 0 0 0 1 0 0 0 0 1 0 0 0 0 0 1 1 0 1 0 0 1 0 0 0 1 0 0 1 0 0 0 0 0 0 0 1 1 1 0 0 0 0 0 1 0 1 0 1 0 0 0 0 1 1 0 0 1 0 1 1 1 1 0 0 1 0 1 1 0 0 0 0 0 0 0 1 0 0 0 1 1 0 0 0 0 0 1 1 0 0 0 0 0 1 1 0 0 0 0 0 1 1 0 0 0 0 0 1 1 0 0 0 0 0 0 0 0 1 0 1 1 0 0 1 1 0 1 0 0 1 1 0 0 1 0 0 0 0 1 1 1 1 1 1 0 0 0 0 0 1 1 0 0 1 0 0 0 1 1 1 1 1 1 0 0 0 0 0 0 0 1 0 0 1 1 0 0 1 1 1 1 0 0 1 1 1 1 0 1 0 0 1 1 0 0 1 1 0 0 1 1 0 0 0 0 1 1 1 0 1 0 0 1 0 0 0 0 1 0 0 0 0 0 0 0 1 1 0 0 1 0 0 0 0 1 0 0 1 1 1 1 0 0 0 0 0 0 1 1 0 0 0 1 1 0 0 0 0 0 0 0 1 1 0 0 1 1 0 0 0 0 1 1 1 0 0 1 0 0 1 1 0 1 0 0 1 1 1 0 0 0 1 0 0 0 0 1 1 0 0 1 1 0 0 1 1 1 1 1 1 1 1 0 0 1 1 0 0 1 1 0 0 2 2 1 1 1 1 1 1 1 1 1 0 1 2 1 1 1 1 1 1 1 1 1 1 1 1 1 0 2 2 2 0 2 2 2 1 0 0 0 0 2 0 0 0 1 1 1 1 0 1 1 1 0 1 1 1 1 1 1 1 1 1 1 1 0 0 0 0 0 0 0 0 0 1 0 0 0 0 0 1 1 1 1 2 2 2 2 2 2 2 2 2 2 1 0 1 0 1 1 1 1 1 1 1 1 0 1 1 1 0 1 1 1 0 1 1 1 1 1 0 1 1 1 1 1 2 2 2 2 2 2 2 2 2 2 1 1 1 1 1 2 2 0 2 2 1 1 1 1 1 2 1 1 0 0 0 0 0 0 1 2 2 2 2 2 2 0 0 1 1 1 0 1 1 1 1 0 1 1 1 1 1 1 1 1 1 1 1 1 1 1 1 1 0 1 1 0 0 0 0 0 0 1 1 1 0 0 2 1 2 0 0 1 1 1 1 1 1 0 1 1 1 0 0 0 0 0 0 0 0 0 0 2 0 2 1 2 2 1 1 0 0 0 0 0 0 0 0 0 0 0 0 1 1 1 1 1 1 1 1 2 2 1 1 0 1 1 1 1 1 1 1 1 1 1 1 1 0 0 1 1 1 2 2 1 1 2 2 1 1 1 1 2 2 2 2 1 1 1 1 2 1 1 1 2 2 2 2 1 1 2 2 1 1 1 1 2 2 1 0 1 1 1 1 1 1 0 0 1 1 1 1 1 1 1 1 1 1 1 1 1 1 1 1 1 1 0 0 0 0 1 1 1 1 1 1 2 2 1 1 1 1 0 0 0 0 1 0 2 2 0 0 1 1 1 1 0 0 0 1 0 0 1 1 1 1 0 0 0 0 1 0 1 1 1 1 1 0 1 1 0 0 0 0 0 2 2 2 2 1 1 1 1 0 0 0 0 0 0 2 2 1 1 2 2 2 2 1 1 2 2 2 2 2 2 2 2 1 1 1 1 1 1 1 1 2 2 2 2 1 1 1 1 0 1 0 0 1 1 0 0 2 2 0 0 0 1 1 1 0 0 0 0 0 0 0 0 0 2 2 1 1 1 1 1 1 1 1 1 1 2 2 2 2 2 2 1 1 1 1 1 1 1 1 0 0 1 1 1 1 2 2 1 1 2 1 1 1 1 1 1 1 2 2 2 2 2 2 0 2 2 2 2 2 0 0 1 1 1 0 0 0 1 0 1 1 1 1 1 1 0 2 1 1 1 1 1 1 1 1 2 2 2 2 0 0 1 1 2 2 0 0 1 1 1 0 1 1 1 1 1 1 1 1 1 1 1 1 1 1 2 2 2 2 2 2 1 1 1 1 1 1 1 1 2 2 1 1 1 1 1 1 1 1 1 1 2 2 1 1 1 1 2 2 1 1 1 1 0 2 2 2 1 0 2 2 0 2 1 1 0 1 0 0 0 1 1 1 1 1 1 1 1 1 1 1 1 1 1 1 1 1 2 2 1 0 2 2 2 2 2 2 2 2 1 0 0 0 1 0 0 0 0 0 0 1 1 1 2 2 2 2 2 2 1 1 0 0 2 2 0 0 2 2 1 1 1 1 2 2 0 0 1 1 1 1 1 1 1 1 0 0 1 1 1 0 1 1 1 0 1 1 1 1 1 1 2 2 2 2 1 1 0 0 0 0 1 1 1 1 0 0 0 0 1 1 1 1 1 1 2 2 2 2 2 2 1 1 0 0 1 1 0 0 0 0 1 1 0 0 1 1 0 0 1 1 1 1 1 1 0 0 1 1 1 1 1 1 2 2 2 2 2 2 1 1 1 1 1 1 2 2 1 1 0 0 0 0 1 0 0 0 1 1 1 1 1 1 1 1 1 1 1 1 1 1 1 1 1 1 1 1 0 0 0 0 1 1 1 1 2 2 2 2 1 1 1 1 1 1 1 1 2 2 2 2 2 2 1 1 2 2 2 2 1 1 1 1 1 1 2 2 1 1 2 2 2 2 2 2 2 2 2 2 0 0 1 1 1 1 2 2 2 2 0 0 0 0 1 1 0 0 2 2 1 1 2 2 1 1 1 1 2 2 0 0 1 1 1 1 1 1 1 1 0 0 0 0 0 0 0 1 1 1 1 1 1 1 1 1 2 2 0 0 0 0 0 0 0 0 1 1 0 1 1 1 0 0 0 0 1 1 0 0 1 1 0 0 0 1 1 1 1 1 1 0 0 0 1 0 0 0 2 2 1 1 1 1 0 0 1 1 1 1 1 1 1 1 1 1 0 0 1 1 1 1 1 1 1 1 1 1 1 1 0 0 1 1 1 1 1 1 1 0 0 0 1 1 0 0 2 2 1 1 1 1 1 1 2 2 2 2 0 0 0 0 0 0 1 1 0 0 0 0 0 0 0 0 0 0 1 1 1 1 0 0 0 0 0 0 1 1 1 1 0 0 0 0 0 0 1 1 1 1 2 2 1 1 1 1 1 1 1 1 1 1 1 1 1 1 1 1 2 2 1 0 1 1 0 0 1 1 1 1 1 1 1 2 2 2 2 1 1 1 1 0 1 1 1 1 1 0 0 1 1 1 1 1 1 0 0 1 1 0 0 0 0 0 0 1 1 2 2 1 1 0 0 0 0 1 1 1 1 1 1 1 1 1 1 1 1 0 0 1 1 1 1 2 2 0 0 1 1 1 1 1 1 1 1 1 1 1 1 1 1 1 1 1 1 1 1 1 1 1 1 1 1 1 1 1 1 1 0 1 1 1 1 1 1 1 1 1 1 1 1 1 1 1 1 1 1 1 1 1 1 1 1 1 1 1 1 1 1 1 1 1 1 1 1 1 1 1 1 1 1 1 1 1 1 1 1 1 1 1 1 1 1 0 0 0 0 0 0 1 1 0 1 1 1 1 1 1 1 1 1 1 1 1 1 1 1 1 1 1 1 1 1 1 1 1 1 1 1 1 1 1 1 1 1 1 1 1 0 0 1 1 0 1 1 1 1 1 1 1 1 1 1 1 1 1 1 1 1 1 1 1 1 1 1 1 1 1 1 1 1 1 1 1 0 0 0 1 1 1 0 0 0 1 1 1 0 0 0 1 0 0 0 1 1 1 1 1 1 1 1 1 1 1 1 1 1 1 1 1 1 1 1 1 1 1 1 1 1 1 1 1 1 1 0 0 0 1 1 1 0 0 0 1 1 1 1 1 1 1 1 1 1 1 1 1 1 1 1 1 1 1 1 1 1 1 0 0 0 1 1 1 0 0 0 1 0 0 0 1 1 0 0 0 1 1 1 1 1 1 1 1 1 1 1 1 1 0 0 0 1 1 1 0 0 0 1 1 1 1 1 1 1 1 0 0 0 1 0 0 0 1 1 1 1 1 1 1 1 1 0 0 0 1 1 0 0 0 1 1 1 1 1 1 1 1 1 1 1 1 1 1 1 1 1 1 1 1 1 1 1 1 1 1 1 1 1 1 1 1 1 1 1 1 1 1 1 1 1 1 1 0 0 0 0 0 0 1 1 1 0 0 0 1 1 1 0 0 0 1 1 1 1 1 0 0 0 1 1 1 0 0 0 1 1 1 1 1 0 0 0 1 1 0 0 0 1 1 1 0 0 0 1 1 1 0 0 0 1 1 1 1 1 1 1 1 1 1 1 1 0 0 0 1 1 1 0 0 0 1 1 1 1 1 1 0 0 0 1 1 1 0 0 0 1 1 1 1 1 0 0 0 1 1 0 0 0 1 1 1 1 1 1 1 1 1 1 1 0 0 0 1 1 0 0 0 1 1 0 0 0 1 1 0 0 0 1 1 1 1 1 0 0 0 1 1 0 0 0 1 1 1 1 1 1 1 1 1 1 1 1 1 1 1 1 1 1 1 1 1 0 0 0 1 1 1 0 0 0 1 1 1 1 1 1 1 1 1 1 1 1 </DataArray>
</CellData>
</Piece>
</UnstructuredGrid>
</VTKFile>