<?xml version="1.0"?>
<VTKFile type="UnstructuredGrid"  version="0.1"  >
<UnstructuredGrid>
<Piece  NumberOfPoints="1461" NumberOfCells="2789">
<Points>
<DataArray  type="Float64"  NumberOfComponents="3"  format="ascii">-0.5 6.123233995736766e-17 0  -0.4914865498419509 -0.09187475890828506 0  -0.466236114702178 -0.1806208330935763 0  -0.4251085678648071 -0.2632160814386779 0  -0.3695044586103295 -0.3368478218232786 0  -0.3013173181896286 -0.3990086136401195 0  -0.2228691778882694 -0.447581645677531 0  -0.1368314950360416 -0.4809128215864095 0  -0.04613417973165096 -0.4978670881475173 0  0.04613417973165122 -0.4978670881475172 0  0.1368314950360414 -0.4809128215864095 0  0.2228691778882688 -0.4475816456775313 0  0.3013173181896281 -0.3990086136401199 0  0.3695044586103293 -0.3368478218232789 0  0.4251085678648069 -0.2632160814386781 0  0.4662361147021779 -0.1806208330935765 0  0.4914865498419509 -0.09187475890828503 0  0.5 0 0  0.4914865498419509 0.09187475890828517 0  0.4662361147021779 0.1806208330935765 0  0.4251085678648071 0.2632160814386779 0  0.3695044586103295 0.3368478218232786 0  0.3013173181896282 0.3990086136401197 0  0.2228691778882692 0.4475816456775312 0  0.1368314950360415 0.4809128215864095 0  0.04613417973165101 0.4978670881475172 0  -0.04613417973165095 0.4978670881475173 0  -0.1368314950360414 0.4809128215864095 0  -0.2228691778882689 0.4475816456775313 0  -0.3013173181896281 0.3990086136401198 0  -0.3695044586103297 0.3368478218232785 0  -0.425108567864807 0.263216081438678 0  -0.4662361147021779 0.1806208330935767 0  -0.4914865498419509 0.09187475890828518 0  -0.9989008914857115 0.04687226246993986 0  -0.9989008914857115 -0.04687226246994006 0  -0.9901225145346509 -0.1402048722818856 0  -0.972642905324813 -0.2323053566349833 0  -0.9466156752904342 -0.3223643331611536 0  -0.912269552664897 -0.4095903603365061 0  -0.8699063724087903 -0.4932168926979072 0  -0.8198984236734248 -0.5725090172720717 0  -0.7626851781103823 -0.6467699120171984 0  -0.6987694277788414 -0.7153469695201277 0  -0.6287128665908849 -0.777637532133752 0  -0.5531311541252 -0.8330941881540912 0  -0.4726885051885656 -0.8812295824940283 0  -0.3880918526722498 -0.9216206995773374 0  -0.3000846350003406 -0.953912580814779 0  -0.2094402627661449 -0.977821443992945 0  -0.1169553219720827 -0.9931371771625541 0  -0.02344257360326047 -0.9997251851098159 0  0.07027618894529231 -0.9975275721840101 0  0.1633773618185306 -0.9865636510865464 0  0.2550427685616762 -0.9669297731502506 0  0.3444668502843321 -0.9387984816003867 0  0.4308637449409707 -0.9024169952385882 0  0.5134741935148417 -0.8581050358751444 0  0.5915722124135216 -0.8062520186022304 0  0.6644714734388218 -0.747313629600077 0  0.7315313352636686 -0.6818078215504381 0  0.7921624734111292 -0.6103102618497922 0  0.8458320592590973 -0.5334492736235703 0  0.8920684425573863 -0.4519003139999344 0  0.9304652963070865 -0.3663800381682465 0  0.9606851875768402 -0.2776400013875007 0  0.982462542875576 -0.1864600542916819 0  0.9956059820218981 -0.09364148953435038 0  1 0 0  0.9956059820218981 0.09364148953435077 0  0.9824625428755761 0.1864600542916812 0  0.9606851875768402 0.2776400013875006 0  0.9304652963070866 0.3663800381682462 0  0.8920684425573865 0.4519003139999338 0  0.8458320592590974 0.5334492736235703 0  0.7921624734111293 0.6103102618497921 0  0.731531335263669 0.6818078215504377 0  0.6644714734388217 0.7473136296000771 0  0.5915722124135224 0.8062520186022298 0  0.5134741935148421 0.8581050358751442 0  0.4308637449409705 0.9024169952385883 0  0.3444668502843328 0.9387984816003864 0  0.2550427685616765 0.9669297731502506 0  0.1633773618185302 0.9865636510865465 0  0.070276188945293 0.9975275721840101 0  -0.02344257360326044 0.9997251851098159 0  -0.1169553219720825 0.9931371771625542 0  -0.2094402627661442 0.9778214439929452 0  -0.3000846350003405 0.953912580814779 0  -0.3880918526722498 0.9216206995773374 0  -0.472688505188565 0.8812295824940286 0  -0.5531311541251994 0.8330941881540915 0  -0.6287128665908847 0.7776375321337522 0  -0.6987694277788417 0.7153469695201276 0  -0.7626851781103822 0.6467699120171985 0  -0.8198984236734244 0.5725090172720723 0  -0.8699063724087902 0.4932168926979075 0  -0.9122695526648968 0.4095903603365063 0  -0.9466156752904341 0.3223643331611538 0  -0.972642905324813 0.2323053566349835 0  -0.9901225145346509 0.1402048722818858 0  -1.1 1.1 0  -1.1 -1.1 0  1.1 -1.1 0  1.1 1.1 0  -1.1 0 0  0 -1.1 0  1.1 0 0  0 1.1 0  -1.1 -0.55 0  -1.1 0.55 0  0.55 -1.1 0  -0.55 -1.1 0  1.1 0.55 0  1.1 -0.55 0  -0.55 1.1 0  0.55 1.1 0  -1.1 -0.275 0  -1.1 0.275 0  0.275 -1.1 0  -0.275 -1.1 0  1.1 0.275 0  1.1 -0.275 0  -0.275 1.1 0  0.275 1.1 0  -1.1 -0.1375 0  -1.1 0.1375 0  0.1375 -1.1 0  -0.1375 -1.1 0  1.1 0.1375 0  1.1 -0.1375 0  -0.1375 1.1 0  0.1375 1.1 0  5.551115123125783e-17 0 0  1.1 0.8250000000000001 0  1.1 -0.8250000000000001 0  -0.8250000000000001 1.1 0  -0.8250000000000001 -1.1 0  -1.1 -0.8250000000000001 0  -1.1 0.8250000000000001 0  0.8250000000000001 -1.1 0  0.8250000000000001 1.1 0  -0.7452577130899811 0.07009504121197063 0  -0.7196145554063145 -0.2047479939110959 0  -0.6695870000800466 0.3334147091903505 0  -0.5967944603467291 -0.4506782564455942 0  -0.5037216596475655 0.5525563387374935 0  -0.3935412594153844 -0.6355909573281985 0  -0.2582020584797643 0.7036952909889966 0  -0.1224874465599003 -0.7396475322243659 0  1.804112415015879e-16 0.7472231737812758 0  0.1372852503520671 -0.7344112228591781 0  0.2911232306082124 0.6913445711599195 0  0.3932371367102588 -0.6350997822946517 0  0.5243503582032214 0.5367899979536359 0  0.5960259246062833 -0.4500978851946297 0  0.6847673336854203 0.3074465196515291 0  0.7183173129809632 -0.2043788966183693 0  0.7449256117842845 0.06204953239509305 0  -0.20035900300458 0.1513040956928792 0  -0.1321718625838789 -0.2134648875097201 0  0.1321718625838787 0.2134648875097203 0  0.1691454556057493 -0.1855437261303996 0  0.8703274951181128 0.8703274951181128 0  0.8537727593964153 -0.8740275859440739 0  0.2685886721097267 0.02488840569699225 0  -0.884556435066475 -0.8244315273435519 0  -0.8845564350664752 0.8244315273435516 0  -0.700580064659332 0.9548184980149617 0  -0.7005800646593325 -0.9548184980149612 0  -0.2980337216678105 -0.02761689135282146 0  -0.0549981651260624 0.2942141970944399 0  1.1 0.6875 0  0.9496207616733379 -0.7125799064602014 0  0.6875 -1.1 0  0.6875 1.1 0  -0.9625000000000001 1.1 0  -0.9625000000000001 -1.1 0  -1.1 -0.6875 0  -1.1 0.6875 0  2.081668171172169e-17 -0.3286953126985109 0  1.1 -0.9625000000000001 0  1.1 0.9625000000000001 0  -0.4285642961523128 0.7162057711357145 0  -0.2922226613044432 -0.776727428568197 0  0.174838450714037 0.8162746937229515 0  0.4617849541950493 0.6955138191869427 0  0.6845471893646073 0.4779975510912708 0  -0.8314184002977903 -0.07656163071707678 0  -0.8042940643706591 0.2324426440997535 0  -0.7469659197661445 -0.372041484500847 0  0.9435817685496533 0.6588731670051087 0  -0.6655841780668343 0.5027264603142332 0  -0.5616418371471765 -0.6162017817942277 0  -0.1378524463486731 0.8324299723484344 0  0.009440324071048431 -0.8383040935568646 0  0.6340216813999336 0.9549268270259341 0  0.6984391415215117 -0.9338903439767606 0  0.300664440564191 -0.7759990472259422 0  -1.1 -0.9625000000000001 0  -1.1 0.9625000000000001 0  0.9625000000000001 -1.1 0  0.9625000000000001 1.1 0  0.8255078551297768 0.1971637233367384 0  0.5931718080586599 -0.60724416156603 0  -0.964569560729961 0.61875 0  -0.9412184400777328 -0.675629987878325 0  0.01451466883707512 -0.1566382224930387 0  0.7445359644808093 -0.3707185760986815 0  -0.6496807851562796 -0.05960531119440617 0  -0.62683574040104 0.1785965340391935 0  -0.5834686517324597 -0.2905328669998186 0  -0.3401882519444225 0.5618906080620845 0  -0.5202412644899305 0.3927183715284568 0  -0.230469700834483 -0.6158690166206668 0  -0.439029499146694 -0.4815924191466816 0  0.1315973236401685 0.6465309847524076 0  -0.04929612731897073 0.1430325247211223 0  -0.1510628756856091 0.008271570971756887 0  0.2352800706632638 -0.6074862080268114 0  0.4388143211162365 -0.4814151137709591 0  0.5830621392046128 -0.290354993318151 0  0.8297887356081327 -0.08096868143845029 0  0.3167546236327295 -0.1265860605627834 0  0.2881011466407613 0.1826342016868564 0  -0.282843184752632 -0.2135932583519227 0  0.6472529330662994 -0.06273876808302634 0  -0.1187431011919023 0.6352194859156121 0  0.005630703506639467 -0.6493092616611125 0  0.3384713093165277 0.5466499340785792 0  0.5118553673379518 0.3865352308568081 0  0.6283965164136763 0.1635550987092959 0  -0.953685798793846 0.953685798793846 0  -0.89375 -0.9706384268651818 0  -0.6875 -1.1 0  0.4125 1.1 0  -0.6875 1.1 0  -0.4125 1.1 0  1.1 -0.4125 0  1.1 0.4125 0  0.4125 -1.1 0  -1.1 -0.4125 0  -1.1 0.4125 0  -0.4125 -1.1 0  1.1 -0.6875 0  0.1394115791193248 -0.04277964460399492 0  -0.3393513283955167 0.1110600808589604 0  -0.1930047892342392 0.3117134374691744 0  0.07927492778061024 0.3481510469172536 0  -0.1324701263156022 -0.3472242494295533 0  0.1439189409798292 -0.3272419854446572 0  0.7177822238787621 -0.5012045196611741 0  0.4845413164728957 -0.7297881373406302 0  0.9613904516514835 -0.9613904516514835 0  0.1835716722752551 -0.8570478058500863 0  0.02055237236693077 0.8764705026293684 0  -0.4210725768174081 -0.7622904223554584 0  -0.5511921771358804 0.6734406073486252 0  -0.6740102264683963 -0.5535712372257735 0  0.1021660343973917 0.08439258971470157 0  -0.7641327511364048 0.4203531262950583 0  -0.8282932755708275 -0.2728623792913848 0  -0.9854957873544363 0.7452945109297571 0  0.9722945504877303 -0.5512686332562167 0  -0.8708679406104808 0.04525295152524858 0  -0.3364219313405007 0.8047457289663124 0  -0.1870734116895495 -0.8510277858141307 0  0.8301367040255592 -0.2719899423920239 0  0.3741394004917264 0.7881775306901468 0  -0.8270615207685887 0.938295111785177 0  -0.7558474866591318 0.8308882058467112 0  0.6370644222528364 0.5962644341027006 0  0.7792401357821636 0.3928441213091871 0  0.8701243835998034 0.07
[...]
<PointData  Vectors="f_85"> 
<DataArray  type="Float64"  Name="f_85"  NumberOfComponents="3" format="ascii">-1.6606352860868520e-01 1.4268152635581624e-01 0.0000000000000000e+00  -3.0940179711806354e-01 3.7218074640172710e-02 0.0000000000000000e+00  -2.6025686512547069e-01 -7.3928684815244339e-02 0.0000000000000000e+00  -1.6650213994902141e-01 -2.3717543083095477e-01 0.0000000000000000e+00  -1.7943471428228332e-03 -3.3511686476320807e-01 0.0000000000000000e+00  3.8473705715243989e-01 -2.3146180639263395e-01 0.0000000000000000e+00  4.8546139922877474e-01 -1.2061028286211725e-01 0.0000000000000000e+00  5.4064539166543302e-01 9.9545452252581632e-03 0.0000000000000000e+00  4.7120145278772507e-01 1.0755184350787203e-01 0.0000000000000000e+00  3.4624466394772002e-01 2.1283534132844609e-01 0.0000000000000000e+00  2.4898754261667402e-01 2.8685233681689626e-01 0.0000000000000000e+00  1.0983002857672983e-01 2.6493314548952823e-01 0.0000000000000000e+00  2.8566206817641777e-02 2.7701553776137011e-01 0.0000000000000000e+00  -3.5576356311774235e-02 2.3914217756531397e-01 0.0000000000000000e+00  -2.6129133760177021e-02 2.0282308834321047e-01 0.0000000000000000e+00  -6.3092227656532052e-02 1.7331382154521771e-01 0.0000000000000000e+00  -1.1352743149339926e-01 1.7460518969090477e-01 0.0000000000000000e+00  -1.7026192712758967e-01 1.2692603076607017e-01 0.0000000000000000e+00  -1.6783158708547388e-01 7.7378977858954701e-02 0.0000000000000000e+00  -1.8914019176822136e-01 -7.2121339008172691e-02 0.0000000000000000e+00  -6.7313888822549836e-02 -1.5276731836226201e-01 0.0000000000000000e+00  1.8884704501167415e-01 -2.0094751870235167e-01 0.0000000000000000e+00  3.3416178820329545e-01 -2.1907079394035220e-01 0.0000000000000000e+00  4.4932784037474061e-01 -1.7952255520857743e-01 0.0000000000000000e+00  4.9570413095061910e-01 -4.4431699732002207e-02 0.0000000000000000e+00  4.3777769834229124e-01 9.6251567860837495e-02 0.0000000000000000e+00  3.6294906132134702e-01 2.0474712404587420e-01 0.0000000000000000e+00  2.1181477777294305e-01 2.8304407152014516e-01 0.0000000000000000e+00  1.0857411223221250e-01 2.7521959554368514e-01 0.0000000000000000e+00  2.3063360400220438e-02 2.3990502047917289e-01 0.0000000000000000e+00  -7.8890771700813444e-03 2.4960470506049007e-01 0.0000000000000000e+00  -7.2393669242596340e-02 1.9989381125725322e-01 0.0000000000000000e+00  -6.1014743211448485e-03 1.6959453948238512e-01 0.0000000000000000e+00  -1.1224114520258149e-01 1.5369242355003090e-01 0.0000000000000000e+00  -2.0424609362025134e-01 8.8883807093049754e-03 0.0000000000000000e+00  -2.0793312702988817e-01 3.5423864903401025e-03 0.0000000000000000e+00  -2.2211285696835628e-01 -1.0480544378388579e-02 0.0000000000000000e+00  -2.1212643901153083e-01 -2.2166697891652331e-02 0.0000000000000000e+00  -2.0153726116591328e-01 -3.6570015562680656e-02 0.0000000000000000e+00  -1.8552721026088040e-01 -5.8156984312982926e-02 0.0000000000000000e+00  -1.5802298224091157e-01 -8.7699181727728545e-02 0.0000000000000000e+00  -1.4278036070977190e-01 -1.1809730272900430e-01 0.0000000000000000e+00  -1.4213753310584770e-01 -1.6902325449453998e-01 0.0000000000000000e+00  -1.3384631067667610e-01 -2.0725334691480002e-01 0.0000000000000000e+00  -7.6471059198083682e-02 -2.2932051863106248e-01 0.0000000000000000e+00  -9.2352482875402070e-02 -2.6165276694602813e-01 0.0000000000000000e+00  -7.8268143333355134e-02 -1.4410800462447099e-01 0.0000000000000000e+00  -2.4490878658079040e-02 -1.4696796509035329e-01 0.0000000000000000e+00  8.5358748192808000e-03 -1.0299267748152867e-01 0.0000000000000000e+00  3.7683764529195828e-02 -5.3064361435614812e-02 0.0000000000000000e+00  1.6454480152784969e-02 -2.8543962025996419e-02 0.0000000000000000e+00  2.3493673006171990e-02 8.0647081864962944e-03 0.0000000000000000e+00  4.6565644958686640e-02 3.1904664308387967e-02 0.0000000000000000e+00  3.5752983862863609e-02 4.9918956919672533e-02 0.0000000000000000e+00  3.4817848651309151e-02 8.3745492714048006e-02 0.0000000000000000e+00  2.2391779864167707e-02 7.1749842542555342e-02 0.0000000000000000e+00  8.6897474801946838e-03 8.1452165072758057e-02 0.0000000000000000e+00  -3.1015763172043105e-03 7.4910961435240467e-02 0.0000000000000000e+00  -2.3229625662383121e-02 8.0701021504196349e-02 0.0000000000000000e+00  -3.3923994826915251e-02 7.2477807894474333e-02 0.0000000000000000e+00  -6.0052598769746168e-02 7.1331286092483639e-02 0.0000000000000000e+00  -7.2968969245920612e-02 6.2533181548693431e-02 0.0000000000000000e+00  -9.1916763677424587e-02 5.5194439690430148e-02 0.0000000000000000e+00  -1.2125343139523191e-01 4.7706058800681586e-02 0.0000000000000000e+00  -1.2301166452245819e-01 3.4176441953238337e-02 0.0000000000000000e+00  -1.4255659520511163e-01 2.7967928192421148e-02 0.0000000000000000e+00  -1.8365365337295220e-01 1.9429042788162341e-02 0.0000000000000000e+00  -1.9830205711814397e-01 1.0564962520072675e-02 0.0000000000000000e+00  -2.1980413706523860e-01 2.9972847503219702e-03 0.0000000000000000e+00  -2.0372320331952271e-01 -1.4863705241537645e-03 0.0000000000000000e+00  -2.1078727094470129e-01 -1.2547913012043419e-02 0.0000000000000000e+00  -2.0842228892115083e-01 -3.2203786383212335e-02 0.0000000000000000e+00  -1.9594745219477344e-01 -4.9269470564757729e-02 0.0000000000000000e+00  -1.7599954867663301e-01 -7.6466185442737589e-02 0.0000000000000000e+00  -1.5463568907797978e-01 -9.7567386530135164e-02 0.0000000000000000e+00  -1.4072701036103766e-01 -1.3314437586746203e-01 0.0000000000000000e+00  -1.4805610218325915e-01 -1.9578734839119699e-01 0.0000000000000000e+00  -8.0337549062430944e-02 -2.0721186100461150e-01 0.0000000000000000e+00  -1.1826223505459259e-01 -3.2061973409048317e-01 0.0000000000000000e+00  -4.5143639506845315e-02 -1.9740433917822775e-01 0.0000000000000000e+00  -6.0147307258261319e-02 -1.3457986079659626e-01 0.0000000000000000e+00  3.6758816860414016e-05 -9.9604224733939414e-02 0.0000000000000000e+00  6.4313089168504161e-03 -6.4042440998309760e-02 0.0000000000000000e+00  3.1265773819035836e-02 -2.4995853581336096e-02 0.0000000000000000e+00  2.4097918847961166e-02 -1.3062464685586781e-02 0.0000000000000000e+00  3.3905492398571636e-02 8.5729832915624592e-03 0.0000000000000000e+00  2.5452015279130557e-02 3.4488674479716902e-02 0.0000000000000000e+00  2.5549051745406177e-02 6.3691716599909493e-02 0.0000000000000000e+00  2.9440473449137673e-02 8.2441037777154350e-02 0.0000000000000000e+00  2.1255659090726610e-02 7.2886383462454005e-02 0.0000000000000000e+00  6.8283243321048378e-03 7.5577590411786230e-02 0.0000000000000000e+00  -9.0679953587372436e-03 7.5908631355786294e-02 0.0000000000000000e+00  -3.0195821448506289e-02 7.4310948813607697e-02 0.0000000000000000e+00  -4.3922039271602632e-02 6.7590994620680148e-02 0.0000000000000000e+00  -6.2371763776154089e-02 6.3794927931241266e-02 0.0000000000000000e+00  -8.0981368020255046e-02 5.7273959151796804e-02 0.0000000000000000e+00  -1.1074259170588381e-01 5.2309636566689202e-02 0.0000000000000000e+00  -1.1763695405620164e-01 3.8930807270286062e-02 0.0000000000000000e+00  -1.4375887511081284e-01 3.1900021678874943e-02 0.0000000000000000e+00  -1.8988744931729906e-01 2.5321017490955850e-02 0.0000000000000000e+00  -1.9811898214031476e-01 1.5695516336700740e-02 0.0000000000000000e+00  -2.1862077823134839e-02 1.4752812673083123e-02 0.0000000000000000e+00  -2.1862077823134839e-02 1.4752812673083123e-02 0.0000000000000000e+00  -1.6642266179940333e-02 1.8021243859313249e-03 0.0000000000000000e+00  -1.6642266179940333e-02 1.8021243859313249e-03 0.0000000000000000e+00  -2.3984685172392420e-01 -1.1570897009571980e-05 0.0000000000000000e+00  2.1022845331766921e-02 -8.3674228794537227e-03 0.0000000000000000e+00  -2.3885608573809797e-01 -4.7055605525262898e-04 0.0000000000000000e+00  2.1022845331766921e-02 -8.3674228794537227e-03 0.0000000000000000e+00  -1.3506135758272139e-01 3.7398123024915726e-04 0.0000000000000000e+00  -1.1810999962796825e-01 -1.8057274407683641e-03 0.0000000000000000e+00  -5.3002540313773396e-04 2.3113025900663806e-02 0.0000000000000000e+00  -1.0586479044081186e-02 -1.7362485042984554e-02 0.0000000000000000e+00  -1.3236803037173872e-01 -1.0298522854225156e-03 0.0000000000000000e+00  -1.1774729047953859e-01 -5.8268163139738316e-05 0.0000000000000000e+00  -1.0586479044081186e-02 -1.7362485042984554e-02 0.0000000000000000e+00  -5.3002540313773396e-04 2.3113025900663806e-02 0.0000000000000000e+00  -2.1407307039269388e-01 2.6285722074404138e-03 0.0000000000000000e+00  -1.8901928783824054e-01 -3.7192305399436870e-03 0.0000000000000000e+00  2.2431545804799068e-02 -7.5352763067950334e-03 0.0000000000000000e+00  1.4546160055776237e-02 -2.0756184637529117e-02 0.0000000000000000e+00  -2.1518727604960533e-01 1.6175830724556102e-03 0.0000000000000000e+00  -1.9557886552235215e-01 -1.5530347534754084e-03 0.0000000000000000e+00  1.4546160055776237e-02 -2.0756184637529117e-02 0.0000000000000000e+00  2.2431545804799068e-02 -7.5352763067950334e-03 0.0000000000000000e+00  -2.3530945853220950e-01 5.5520797844050716e-04 0.0000000000000000e+00  -2.2360951795927764e-01 -8.1827956009320813e-04 0.0000000000000000e+00  2.1528108738202420e-02 6.4499431664854015e-03 0.0000000000000000e+00  1.9506388281434670e-02 1.5058019297978856e-02 0.0000000000000000e+00  -2.3369127897458775e-01 1.0111436574973404e-03 0.0000000000000000e+00  -2.2101140470474140e-01 -1.4915960228884934e-03 0.0000000000000000e+00  1.9506388281434670e-02 1.5058019297978856e-02 0.0000000000000000e+00  2.1528108738202420e-02 6.4499431664854015e-03 0.0000000000000000e+00  4.5541805757994869e-01 -4.9383816757876092e-01 0.0000000000000000e+00  -5.8514774478322103e-02 1.5210067128600170e-03 0.0000000000000000e+00  -5.4052105691931605e-02 -6.5057424654202884e-03 0.0000000000000000e+00  -1.2041997112663764e-02 1.7039070052498263e-02 0.0000000000000000e+00  -1.2041997112663764e-02 1.7039070052498263e-02 0.0000000000000000e+00  -5.7217429586461414e-02 -1.7757225543778322e-03 0.0000000000000000e+00  -6.1554566523538544e-02 -8.5684617907440925e-04 0.0000000000000000e+00  -1.1656533586592204e-02 -1.1566045514872315e-02 0.0000000000000000e+00  -1.1656533586592204e-02 -1.1566045514872315e-02 0.0000000000000000e+00  -2.4952557158061828e-01 7.0644352255624099e-02 0.0000000000000000e+00  -3.0112108510934810e-01 -3.5502106029750166e-02 0.0000000000000000e+00  -1.6547218654990858e-01 1.2585666918845531e-01 0.0000000000000000e+00  -1.9735055801224394e-01 -1.6527182296672646e-01 0.0000000000000000e+00  -5.8838566075518718e-02 1.4696958286396056e-01 0.0000000000000000e+00  7.6227868127980575e-02 -2.1743200183798220e-01 0.0000000000000000e+00  5.6096643193988785e-02 1.2351445503901470e-01 0.0000000000000000e+00  1.6808707825569746e-01 -7.9327447111368410e-02 0.0000000000000000e+00  1.6213318130915583e-01 4.2408519244199342e-03 0.0000000000000000e+00  9.5268061054951364e-02 7.8450716287567751e-02 0.0000000000000000e+00  1.4412357704772696e-01 -1.8953580844494639e-01 0.0000000000000000e+00  -9.0881997422615781e-04 1.4291330234365690e-01 0.0000000000000000e+00  -1.0449898551153394e-01 -2.0001258506945896e-01 0.0000000000000000e+00  -1.1402614912026784e-01 1.3872030106709171e-01 0.0000000000000000e+00  -2.8024394304247907e-01 -8.9280146858490367e-02 0.0000000000000000e+00  -2.1612102712916600e-01 9.8476494651898575e-02 0.0000000000000000e+00  -2.8553276693909840e-01 3.3394898562813198e-02 0.0000000000000000e+00  2.1309518868788579e-01 -7.5983756694184362e-02 0.0000000000000000e+00  6.7527381804108377e-01 -6.7946385420504393e-02 0.0000000000000000e+00  6.7774134803428165e-01 -7.3878463513981529e-02 0.0000000000000000e+00  1.7707972158089963e-01 -7.2090418486123631e-02 0.0000000000000000e+00  -3.8436174237116143e-02 -4.1857271146439307e-02 0.0000000000000000e+00  -4.0733694599717908e-02 4.1275796885710425e-02 0.0000000000000000e+00  3.8465173320357027e-01 4.8897679052280929e-02 0.0000000000000000e+00  -4.6200596200116649e-02 -4.3476737051920650e-02 0.0000000000000000e+00  -5.2380764068534362e-02 3.5904947828011256e-02 0.0000000000000000e+00  -1.8567982274473184e-02 5.3908019737961610e-02 0.0000000000000000e+00  -8.6110038218680310e-03 -5.8671855249060094e-02 0.0000000000000000e+00  3.5039611683614186e-01 8.4466861844929533e-02 0.0000000000000000e+00  3.4842041691424996e-01 6.7773357795263514e-02 0.0000000000000000e+00  -9.1758181351268675e-02 -1.9871832127789105e-04 0.0000000000000000e+00  -7.4741480442721761e-02 3.0134766040057187e-02 0.0000000000000000e+00  -1.0571593014562886e-02 -1.2116589151422718e-05 0.0000000000000000e+00  -1.0571593014562886e-02 -1.2116589151422718e-05 0.0000000000000000e+00  -1.7089272367739571e-02 -9.7427002580036115e-03 0.0000000000000000e+00  -1.7089272367739571e-02 -9.7427002580036115e-03 0.0000000000000000e+00  -8.8523481144011540e-02 1.0901981242342712e-03 0.0000000000000000e+00  -8.6585128225448560e-02 9.1478928148537185e-04 0.0000000000000000e+00  4.5416218933547253e-01 9.5294757196750068e-02 0.0000000000000000e+00  -3.6342503770477722e-02 -1.2401984589431819e-03 0.0000000000000000e+00  -3.2565490899523333e-02 1.6477840215234811e-03 0.0000000000000000e+00  2.3146438666543511e-03 1.0579049999161452e-01 0.0000000000000000e+00  1.1242461590609028e-01 -1.6129660567783258e-01 0.0000000000000000e+00  1.0726963359332385e-01 -9.0367484692425712e-02 0.0000000000000000e+00  3.1595833651136968e-02 -1.8187560822500035e-01 0.0000000000000000e+00  -2.1430430935848227e-01 -1.2610499494777719e-01 0.0000000000000000e+00  -2.3623837953882121e-01 1.7655213967893948e-02 0.0000000000000000e+00  -1.6554135349353077e-01 6.0904088668466250e-02 0.0000000000000000e+00  -2.4032919526207266e-01 -7.5828262098969187e-02 0.0000000000000000e+00  -9.4965167460834055e-02 -4.7884232131406877e-02 0.0000000000000000e+00  -8.4777094173394490e-02 9.1071500827573731e-02 0.0000000000000000e+00  -1.2238348033594403e-01 -1.8042092104381860e-01 0.0000000000000000e+00  7.0549971920151153e-02 5.5787701825548396e-02 0.0000000000000000e+00  9.3457707725344646e-02 6.7657249709961497e-03 0.0000000000000000e+00  -8.7357635704307778e-03 -5.1457782393974742e-02 0.0000000000000000e+00  -2.4520250167816674e-02 6.2347553750331901e-02 0.0000000000000000e+00  3.5021005651157608e-02 9.4918675461589594e-02 0.0000000000000000e+00  -3.7143919739394148e-02 3.5795571102587883e-03 0.0000000000000000e+00  -4.0403443274470506e-02 -4.7278199244228121e-04 0.0000000000000000e+00  -1.7593544994219602e-02 1.0636809771746258e-02 0.0000000000000000e+00  -1.7593544994219602e-02 1.0636809771746258e-02 0.0000000000000000e+00  -2.4066832433277990e-01 -1.8262172698236968e-02 0.0000000000000000e+00  -4.9049841321182293e-02 1.0163243464289752e-01 0.0000000000000000e+00  -1.0112913850565890e-01 3.1668338636253450e-02 0.0000000000000000e+00  -9.0308210715699749e-02 -3.9780032580378502e-02 0.0000000000000000e+00  4.9958488228119907e-01 -6.8046411420133221e-02 0.0000000000000000e+00  -1.3298072357992935e-01 8.0459938788840696e-02 0.0000000000000000e+00  -3.8952973893440013e-01 5.6894121962372458e-02 0.0000000000000000e+00  -2.7839921548303109e-01 1.5520143503536374e-01 0.0000000000000000e+00  -2.8971973357967618e-01 -1.2412331770799381e-01 0.0000000000000000e+00  -7.1900751380231560e-04 2.0994070094144221e-01 0.0000000000000000e+00  -1.3706646382628096e-01 2.0040418506322552e-01 0.0000000000000000e+00  2.2397373859488987e-01 -2.0443560418560058e-01 0.0000000000000000e+00  -1.7095930995297527e-02 -2.5243016882484964e-01 0.0000000000000000e+00  2.6288968211878921e-01 -1.0386677220407194e-01 0.0000000000000000e+00  3.2846827854429300e-01 -1.2897810451486877e-01 0.0000000000000000e+00  4.2086094759649595e-01 -1.1271704005314591e-01 0.0000000000000000e+00  7.7204480072008239e-02 1.7234565110960656e-01 0.0000000000000000e+00  -8.4610694787506172e-02 2.1269076204934206e-01 0.0000000000000000e+00  -1.9283177675206523e-01 1.7091899665435753e-01 0.0000000000000000e+00  -2.1237239436281027e-01 4.2825656220129918e-02 0.0000000000000000e+00  2.4844427439048702e-01 2.1480171906890357e-02 0.0000000000000000e+00  4.8646295451184485e-01 2.7520252270505308e-02 0.0000000000000000e+00  5.0001250839092626e-01 3.0042891890979685e-02 0.0000000000000000e+00  -3.1681758826938916e-01 1.1078122059135138e-01 0.0000000000000000e+00  1.6455409601340010e-01 1.2716208285600444e-01 0.0000000000000000e+00  2.1914128367840069e-01 3.1919941811766599e-02 0.0000000000000000e+00  1.4703360123114428e-01 -2.6111645374783488e-01 0.0000000000000000e+00  -1.8470365138001801e-01 -2.2322702924775925e-01 0.0000000000000000e+00  -3.7258285048282408e-01 -2.5396171070003859e-02 0.0000000000000000e+00  -3.9117273246368128e-02 2.0547742069681119e-02 0.0000000000000000e+00  -2.5083216433371466e-02 -3.2689912980028359e-02 0.0000000000000000e+00  -1.1181846919850972e-02 2.6335431678821485e-02 0.0000000000000000e+00  -3.4862184363653082e-03 -1.5463012492888908e-02 0.0000000000000000e+00  -1.1181846919850972e-02 2.6335431678821485e-02 0.0000000000000000e+00  8.0867707974783907e-03 1.6247823013371381e-03 0.0000000000000000e+00  -1.5473415339624971e-01 -6.4657751778983831e-04 0.0000000000000000e+00  -1.7045308720831279e-01 1.6670242434818770e-03 0.0000000000000000e+00  -3.4862184363653082e-03 -1.5463012492888908e-02 0.0000000000000000e+00  -1.6705882870676125e-01 1.5577476087118608e-03 0.0000000000000000e+00  -1.5628501218231011e-01 -1.0480655395484198e-03 0.0000000000000000e+00  8.0867707974783907e-03 1.6247823013371381e-03 0.0000000000000000e+00  -8.5586852188298146e-02 -3.3049230072574481e-03 0.0000000000000000e+00  3.4702985005078457e-01 -1.7907461863162916e-01 0.0000000000000000e+00  2.1991245419122221e-01 5.5745425817194168e-02 0.0000000000000000e+00  1.6459325495088714e-01 4.5676786305167125e-02 0.0000000000000000e+00  5.9920156929985113e-01 4.4719680357054085e-02 0.0000000000000000e+00  6.3339733419644118e-01 2.0634172050917336e-02 0.0000000000000000e+00  2.0450172143172188e-01 7.1005640435140516e-02 0.0000000000000000e+00  -8.9123568832186112e-02 8.0684861609232578e-02 0.0000000000000000e+00  -5.9999873921157470e-03 9.4659919473631962e-02 0.0000000000000000e+00  -3.2016869945386113e-02 1.8441768222801528e-02 0.0000000000000000e+00  5.3236824428809962e-02 6.3193394345447809e-02 0.0000000000000000e+00  8.1570556081835527e-02 -6.2848188826884433e-03 0.0000000000000000e+00  8.2899198335598959e-02 -1.7550492488188107e-01 0.0000000000000000e+00  -2.9844094543255734e-02 9.5702388426613383e-02 0.0000000000000000e+00  -1.8348145389172957e-01 -1.4517149660899459e-01 0.0000000000000000e+00  6.7675611022234616e-01 -1.2944687246749514e-01 0.0000000000000000e+00  -1.1431038527455419e-01 7.4272138777542088e-02 0.0000000000000000e+00  -2.3433049559288596e-01 -3.8617765453892401e-02 0.0000000000000000e+00  -7.2298170757785218e-02 2.1846446485779849e-02 0.0000000000000000e+00  -1.1476648120038487e-01 3.0472313025127134e-02 0.0000000000000000e+00  -2.0550043625472392e-01 3.1967378929831598e-02 0.0000000000000000e+00  2.2843355304078026e-02 8.7852975513616149e-02 0.0000000000000000e+00  8.7999060487872316e-02 -8.6115954347298587e-02 0.0000000000000000e+00  -1.4891734593862038e-01 5.5311057870363146e-02 0.0000000000000000e+00  8.5041842985969507e-02 -1.8342130727943085e-01 0.0000000000000000e+00  -3.3613990446236607e-02 3.7702952639620077e-02 0.0000000000000000e+00  -4.3241509787550488e-02 5.5986839427660709e-02 0.0000000000000000e+00  -1.7837507078625742e-01 -1.5719051681656235e-01 0.0000000000000000e+00  -2.3178170480181992e-01 -8.1909045430514874e-02 0.0000000000000000e+00  -2.2018617241819197e-01 8.1785002543407447e-03 0.0000000000000000e+00  -4.2693182393259685e-02 -1.8888144568167373e-02 0.0000000000000000e+00  -3.2329163143110012e-01 -1.4219185023326336e-01 0.0000000000000000e+00  1.4781766353399808e-01 2.6654409616252251e-02 0.0000000000000000e+00  5.9006970958929161e-01 -3.1367236373937325e-02 0.0000000000000000e+00  1.3434130637814115e-01 3.5627836967317403e-02 0.0000000000000000e+00  -1.8695478964215407e-02 -5.8407171757482147e-02 0.000000