<?xml version="1.0"?>
<VTKFile type="UnstructuredGrid"  version="0.1"  >
<UnstructuredGrid>
<Piece  NumberOfPoints="1333" NumberOfCells="2365">
<Points>
<DataArray  type="Float64"  NumberOfComponents="3"  format="ascii">-0.4960573506572389 0.06266661678215227 0  -0.4960573506572389 -0.06266661678215214 0  -0.4648882429441257 -0.184062276342339 0  -0.4045084971874739 -0.2938926261462363 0  -0.3187119948743448 -0.3852566213878947 0  -0.2128896457825361 -0.4524135262330099 0  -0.09369065729286231 -0.4911436253643444 0  0.03139525976465642 -0.4990133642141358 0  0.1545084971874736 -0.4755282581475768 0  0.2679133974894984 -0.4221639627510075 0  0.3644843137107056 -0.3422735529643445 0  0.4381533400219316 -0.2408768370508581 0  0.4842915805643155 -0.1243449435824277 0  0.5 0 0  0.4842915805643155 0.1243449435824274 0  0.4381533400219318 0.2408768370508577 0  0.3644843137107058 0.3422735529643443 0  0.2679133974894983 0.4221639627510075 0  0.1545084971874737 0.4755282581475768 0  0.03139525976465676 0.4990133642141358 0  -0.0936906572928623 0.4911436253643444 0  -0.2128896457825364 0.4524135262330097 0  -0.3187119948743449 0.3852566213878946 0  -0.4045084971874737 0.2938926261462366 0  -0.4648882429441257 0.1840622763423391 0  -0.9979453927503363 0.06407021998071323 0  -0.9979453927503363 -0.06407021998071299 0  -0.9815591569910653 -0.1911586287013723 0  -0.9490557470106686 -0.3151082180236206 0  -0.9009688679024191 -0.433883739117558 0  -0.8380881048918408 -0.5455349012105485 0  -0.7614459583691346 -0.6482283953077882 0  -0.672300890261317 -0.7402779970753153 0  -0.57211666012217 -0.8201722545969556 0  -0.4625382902408353 -0.886599306373 0  -0.3453650544213073 -0.9384684220497606 0  -0.2225209339563146 -0.9749279121818236 0  -0.09602302590768157 -0.9953791129491982 0  0.03205157757165486 -0.9994862162006879 0  0.1595998950333784 -0.9871817834144503 0  0.284527586631032 -0.9586678530366608 0  0.4047833431223937 -0.9144126230158125 0  0.5183925683105245 -0.8551427630053464 0  0.6234898018587334 -0.7818314824680299 0  0.718349350097727 -0.6956825506034869 0  0.8014136218679559 -0.598110530491217 0  0.8713187041233894 -0.4907175520039379 0  0.9269167573460216 -0.3752670048793746 0  0.9672948630390293 -0.2536545839095075 0  0.9917900138232461 -0.1278771616845066 0  1 0 0  0.9917900138232462 0.127877161684506 0  0.9672948630390295 0.2536545839095073 0  0.9269167573460217 0.3752670048793741 0  0.8713187041233894 0.4907175520039379 0  0.8014136218679566 0.598110530491216 0  0.7183493500977276 0.6956825506034864 0  0.6234898018587336 0.7818314824680298 0  0.5183925683105252 0.8551427630053461 0  0.4047833431223938 0.9144126230158125 0  0.2845275866310324 0.9586678530366606 0  0.1595998950333795 0.9871817834144501 0  0.03205157757165533 0.9994862162006879 0  -0.09602302590768176 0.9953791129491982 0  -0.2225209339563143 0.9749279121818236 0  -0.3453650544213075 0.9384684220497604 0  -0.4625382902408351 0.8865993063730001 0  -0.5721166601221698 0.8201722545969558 0  -0.6723008902613169 0.7402779970753155 0  -0.7614459583691342 0.6482283953077888 0  -0.8380881048918406 0.5455349012105487 0  -0.900968867902419 0.4338837391175582 0  -0.9490557470106685 0.3151082180236213 0  -0.9815591569910653 0.1911586287013725 0  -1 1 0  -1 -1 0  1 -1 0  1 1 0  -1 0 0  0 -1 0  1 -0.512561759845706 0  1 0.5125617598457033 0  0 1 0  -0.9979453927503363 1.179611963664229e-16 0  -1 -0.5 0  -1 0.5 0  -0.03198572416801335 -0.9974326645749431 0  0.5 -1 0  -0.5 -1 0  1 -0.2562808799228529 0  1 0.2562808799228516 0  -0.03198572416801321 0.9974326645749431 0  0.5 1 0  -0.5 1 0  -1 -0.25 0  -1 0.25 0  3.292670182075338e-05 -0.9984594403878155 0  0.25 -1 0  -0.25 -1 0  1 -0.1281404399614265 0  1 -0.3844213198842794 0  1 0.1281404399614258 0  1 0.3844213198842775 0  3.29267018210587e-05 0.9984594403878155 0  0.25 1 0  -0.25 1 0  -0.965307452000867 -0.2531334233624964 0  -1 -0.125 0  -1 -0.375 0  -0.9653074520008669 0.2531334233624969 0  -1 0.125 0  -1 0.375 0  0.2220637408322052 -0.9729248182255555 0  0.125 -1 0  0.375 -1 0  -0.283942994188811 -0.9566981671157921 0  -0.125 -1 0  -0.375 -1 0  0.222063740832206 0.9729248182255553 0  0.125 1 0  0.375 1 0  -0.2839429941888109 0.956698167115792 0  -0.125 1 0  -0.375 1 0  -0.9897522748707008 -0.1276144243410426 0  -1 -0.0625 0  -1 -0.1875 0  -1 -0.3125 0  -0.9897522748707008 0.1276144243410429 0  -1 0.0625 0  -1 0.1875 0  -1 0.3125 0  0.09582573630251663 -0.9933339998075691 0  0.0625 -1 0  0.1875 -1 0  0.3125 -1 0  -0.1592719799319981 -0.9851535125655109 0  -0.0625 -1 0  -0.1875 -1 0  -0.3125 -1 0  0.09582573630251744 0.993333999807569 0  0.0625 1 0  0.1875 1 0  0.3125 1 0  -0.159271979931998 0.9851535125655109 0  -0.0625 1 0  -0.1875 1 0  -0.3125 1 0  -0.9938488338105186 -0.09584232216087782 0  -0.9979453927503363 -0.03203510999035644 0  -1 -0.09375 0  -0.9856557159308831 -0.1593865265212075 0  -1 -0.15625 0  -0.9938488338105186 0.09584232216087807 0  -0.9979453927503363 0.03203510999035668 0  -1 0.09375 0  -0.9856557159308831 0.1593865265212077 0  -1 0.15625 0  0.1277128156679475 -0.9902578916110096 0  0.06393865693708575 -0.9964101080041285 0  0.03125 -1 0  0.09375 -1 0  0.1908318179327918 -0.980053300820003 0  0.21875 -1 0  0.15625 -1 0  -0.1276475029198398 -0.9902663127573545 0  -0.06400437503784746 -0.9964058887620706 0  -0.03125 -1 0  -0.09375 -1 0  -0.1908964569441563 -0.9800407123736672 0  -0.21875 -1 0  -0.15625 -1 0  0.1277128156679485 0.9902578916110095 0  0.06393865693708639 0.9964101080041284 0  0.03125 1 0  0.09375 1 0  0.1908318179327927 0.9800533008200027 0  0.21875 1 0  0.15625 1 0  -0.1276475029198399 0.9902663127573545 0  -0.06400437503784749 0.9964058887620706 0  -0.03125 1 0  -0.09375 1 0  -0.1908964569441562 0.9800407123736672 0  -0.21875 1 0  -0.15625 1 0  -0.9918005543406097 -0.1117283732509602 0  -1 -0.03125 0  -0.9979453927503363 -0.04805266498553472 0  -0.9958971132804275 -0.07995627107079541 0  -1 -0.109375 0  -1 -0.078125 0  -0.9918005543406097 0.1117283732509605 0  -1 0.03125 0  -0.9979453927503363 0.04805266498553495 0  -0.9958971132804275 0.07995627107079564 0  -1 0.109375 0  -1 0.078125 0  0.1117692759852321 -0.9917959457092893 0  0.04799511725437031 -0.9979481621024082 0  0.01604225213673781 -0.9989728282942517 0  0.046875 -1 0  0.0798821966198012 -0.9948720539058489 0  0.109375 -1 0  0.078125 -1 0  -0.1118352644137607 -0.9928227128532764 0  -0.04799504960293041 -0.9969192766685069 0  -0.0159763987330963 -0.9979460524813792 0  -0.046875 -1 0  -0.08001370047276452 -0.9958925008556344 0  -0.109375 -1 0  -0.078125 -1 0  0.111769275985233 0.9917959457092893 0  0.04799511725437086 0.9979481621024082 0  0.0160422521367382 0.9989728282942517 0  0.046875 1 0  0.07988219661980192 0.9948720539058487 0  0.109375 1 0  0.078125 1 0  -0.1118352644137608 0.9928227128532764 0  -0.04799504960293036 0.9969192766685069 0  -0.01597639873309608 0.9979460524813792 0  -0.046875 1 0  -0.08001370047276463 0.9958925008556344 0  -0.109375 1 0  -0.078125 1 0  -0.9979453927503363 -0.01601755499517816 0  -1 -0.046875 0  -0.9979453927503363 -0.05606144248312386 0  -0.9948729735454731 -0.08789929661583662 0  -0.9969212530153819 -0.07201324552575419 0  -1 -0.0703125 0  -1 -0.0859375 0  -0.9979453927503363 0.0160175549951784 0  -1 0.046875 0  -0.9979453927503363 0.05606144248312409 0  -0.9948729735454731 0.08789929661583686 0  -0.9969212530153819 0.07201324552575444 0  -1 0.0703125 0  -1 0.0859375 0  0.05596688709572803 -0.9971791350532684 0  0.015625 -1 0  0.02404691485419633 -0.9992295222474699 0  0.04002334741301258 -0.9987171891515481 0  0.0546875 -1 0  0.0390625 -1 0  0.07191042677844348 -0.9956410809549887 0  0.0703125 -1 0  -0.05599971232038894 -0.9966625827152887 0  -0.015625 -1 0  -0.02398106145055483 -0.9976893585281612 0  -0.03999038688547188 -0.9971759706217249 0  -0.0546875 -1 0  -0.0390625 -1 0  -0.08801836319022305 -0.9956358069024163 0  -0.1015625 -1 0  -0.07200903775530598 -0.9961491948088526 0  -0.0703125 -1 0  -0.0859375 -1 0  0.05596688709572863 0.9971791350532684 0  0.015625 1 0  0.02404691485419676 0.9992295222474699 0  0.0400233474130131 0.9987171891515481 0  0.0546875 1 0  0.0390625 1 0  0.07191042677844416 0.9956410809549885 0  0.0703125 1 0  -0.05599971232038892 0.9966625827152887 0  -0.015625 1 0  -0.02398106145055465 0.9976893585281612 0  -0.03999038688547178 0.9971759706217249 0  -0.0546875 1 0  -0.0390625 1 0  -0.08801836319022319 0.9956358069024163 0  -0.1015625 1 0  -0.07200903775530607 0.9961491948088526 0  -0.0703125 1 0  -0.0859375 1 0  -1 -0.015625 0  -0.9979453927503363 -0.0240263324927673 0  -0.9979453927503363 -0.04004388748794558 0  -1 -0.0546875 0  -1 -0.0390625 0  -0.9979453927503363 -0.06006583123191843 0  -0.9974333228828591 -0.06804173275323359 0  -1 -0.06640625 0  -1 -0.07421875 0  -1 0.015625 0  -0.9979453927503363 0.02402633249276754 0  -0.9979453927503363 0.04004388748794582 0  -1 0.0546875 0  -1 0.0390625 0  -0.9979453927503363 0.06006583123191866 0  -0.9974333228828591 0.06804173275323383 0  -1 0.06640625 0  -1 0.07421875 0  0.008037589419279281 -0.9987161343410336 0  0.0234375 -1 0  0.0280492462129256 -0.9993578692240789 0  0.04400923233369144 -0.9983326756269781 0  0.05198100217504917 -0.9975636485778383 0  0.05859375 -1 0  0.05078125 -1 0  0.03603746249233372 -0.999101702676118 0  0.03515625 -1 0  0.04296875 -1 0  -0.007971736015637774 -0.9982027464345974 0  -0.0234375 -1 0  -0.1039291451607211 -0.9941009129012373 0  0.008037589419279628 0.9987161343410336 0  0.0234375 1 0  0.02804924621292605 0.9993578692240789 0  0.04400923233369198 0.9983326756269781 0  0.05198100217504974 0.9975636485778383 0  0.05859375 1 0  0.05078125 1 0  0.03603746249233421 0.999101702676118 0  0.03515625 1 0  0.04296875 1 0  -0.00797173601563751 0.9982027464345974 0  -0.0234375 1 0  -0.1039291451607213 0.9941009129012373 0  -0.9979453927503363 -0.008008777497589022 0  -1 -0.0234375 0  -0.9979453927503363 -0.02803072124156187 0  -0.9979453927503363 -0.04404827623674015 0  -0.9979453
[...]
<PointData  Vectors="f_80"> 
<DataArray  type="Float64"  Name="f_80"  NumberOfComponents="3" format="ascii">-8.8795151977604583e-02 7.5559883416043486e-02 0.0000000000000000e+00  -4.5155049367333180e-02 -4.7705858456088115e-02 0.0000000000000000e+00  -1.4245886274299627e-01 -2.0065671453513539e-01 0.0000000000000000e+00  -7.2881307315964157e-03 -2.5088044919804325e-01 0.0000000000000000e+00  2.2327300145408085e-01 -2.1162676375926887e-01 0.0000000000000000e+00  3.5383471079157408e-01 -1.3750016861168235e-01 0.0000000000000000e+00  3.9440135800596293e-01 -9.6743309687868123e-02 0.0000000000000000e+00  4.5132394745787430e-01 3.8883125290295278e-02 0.0000000000000000e+00  4.1737295169904909e-01 1.3139717876068732e-01 0.0000000000000000e+00  2.0570951772501361e-01 2.7828227802655381e-01 0.0000000000000000e+00  7.1351369673773465e-02 2.8619554955022414e-01 0.0000000000000000e+00  1.1991111358206469e-01 1.4935404196638186e-01 0.0000000000000000e+00  1.8524099199897615e-02 8.5237259263029788e-02 0.0000000000000000e+00  6.8083104388504531e-03 -3.1725904578896813e-03 0.0000000000000000e+00  -1.3841213358328153e-01 -1.3362731653084509e-01 0.0000000000000000e+00  6.4884586483787070e-04 -2.0403310386375495e-01 0.0000000000000000e+00  1.9247315167271270e-01 -1.8222910712479612e-01 0.0000000000000000e+00  2.6553433960341316e-01 -1.8849554616922448e-01 0.0000000000000000e+00  4.0363581137364729e-01 -1.5029332464551937e-01 0.0000000000000000e+00  4.2953973278478708e-01 -5.0333144701609774e-02 0.0000000000000000e+00  4.0248376519794005e-01 1.0297737138645306e-01 0.0000000000000000e+00  3.5044812045836554e-01 1.2641557227388364e-01 0.0000000000000000e+00  1.0126219911703815e-01 2.9417418289063907e-01 0.0000000000000000e+00  1.3937967376656304e-01 1.9459625845012424e-01 0.0000000000000000e+00  -1.0454715978141628e-01 1.5508530677595961e-01 0.0000000000000000e+00  -3.0702797647124447e-01 3.8396530877273141e-05 0.0000000000000000e+00  -3.0689059652991435e-01 -6.0771862825693913e-04 0.0000000000000000e+00  -2.8741398346786218e-01 -4.3323853761355093e-03 0.0000000000000000e+00  -2.5240539283611862e-01 -1.7540830930894698e-02 0.0000000000000000e+00  -2.0775934552745606e-01 -2.5507364568696220e-02 0.0000000000000000e+00  -1.6727535877229727e-01 -4.1529681900884442e-02 0.0000000000000000e+00  -1.2208530595732961e-01 -5.4350655625146189e-02 0.0000000000000000e+00  -8.2385351610982233e-02 -6.4565291233322636e-02 0.0000000000000000e+00  -4.2614679150841127e-02 -4.9709795532660563e-02 0.0000000000000000e+00  -1.8372228558377142e-03 -3.5564712524101420e-02 0.0000000000000000e+00  4.3378024221124890e-02 -2.2463700268197776e-02 0.0000000000000000e+00  7.6910143157230257e-02 -1.0158863288358024e-02 0.0000000000000000e+00  1.0839159175878471e-01 -1.1150513017139834e-03 0.0000000000000000e+00  1.1409157544102932e-01 -1.3280831738680420e-04 0.0000000000000000e+00  9.4481380904002765e-02 3.1515429612559621e-04 0.0000000000000000e+00  6.4626926667831319e-02 1.8344822596283533e-02 0.0000000000000000e+00  2.9830883104851106e-02 2.8418142833766966e-02 0.0000000000000000e+00  -2.1693257580744151e-02 5.2955440506472252e-02 0.0000000000000000e+00  -5.2685270170973568e-02 6.6773192644190085e-02 0.0000000000000000e+00  -1.0208589180200707e-01 6.0284463080314883e-02 0.0000000000000000e+00  -1.4575141880731729e-01 6.0454908046699944e-02 0.0000000000000000e+00  -1.8597421515813836e-01 4.0613853538679606e-02 0.0000000000000000e+00  -2.2423035173006806e-01 1.6006721350284005e-02 0.0000000000000000e+00  -2.6541945449440774e-01 9.3150518083043640e-03 0.0000000000000000e+00  -3.0042817032950619e-01 2.3250180692959664e-03 0.0000000000000000e+00  -3.0756204770952011e-01 -1.3767187795419029e-03 0.0000000000000000e+00  -2.9986116249223116e-01 -6.2055380917189836e-04 0.0000000000000000e+00  -2.6312664302177746e-01 -1.1479788972601664e-02 0.0000000000000000e+00  -2.2348940196758152e-01 -2.4328332666571150e-02 0.0000000000000000e+00  -1.8762916622505377e-01 -4.0777835845688858e-02 0.0000000000000000e+00  -1.4311660415688440e-01 -5.7837758424294811e-02 0.0000000000000000e+00  -1.0121629950802946e-01 -6.1847040287470019e-02 0.0000000000000000e+00  -6.5074098512224579e-02 -4.9392361529827594e-02 0.0000000000000000e+00  -2.1769101615229290e-02 -4.2880030254568102e-02 0.0000000000000000e+00  2.5942214262243992e-02 -2.4390343606955023e-02 0.0000000000000000e+00  6.1410770161382855e-02 -1.3826360409297954e-02 0.0000000000000000e+00  9.3334024105813457e-02 -2.8735452424373518e-03 0.0000000000000000e+00  1.1410684718479441e-01 -2.1642931480350740e-04 0.0000000000000000e+00  1.0888455248613736e-01 1.5728114606938601e-03 0.0000000000000000e+00  7.3099981083357093e-02 5.1477364887352502e-03 0.0000000000000000e+00  4.7905139807020748e-02 2.5666689788363131e-02 0.0000000000000000e+00  -5.1600363968302707e-03 3.1438082108301749e-02 0.0000000000000000e+00  -4.5783646248917169e-02 4.7192821275099946e-02 0.0000000000000000e+00  -8.5327097147760531e-02 6.4092758920145612e-02 0.0000000000000000e+00  -1.2767482183586745e-01 5.8454357349290040e-02 0.0000000000000000e+00  -1.6460253383625470e-01 4.8814916965396575e-02 0.0000000000000000e+00  -2.0610648690976563e-01 2.3640498195044532e-02 0.0000000000000000e+00  -2.4995899730262575e-01 1.6758299612760916e-02 0.0000000000000000e+00  -2.8111976137365119e-01 7.6216788464745586e-03 0.0000000000000000e+00  -9.4205019819564279e-02 7.4743771083071064e-05 0.0000000000000000e+00  -9.4205019819564279e-02 7.4743771083071064e-05 0.0000000000000000e+00  -9.6845181070867495e-02 -5.8273584035423241e-04 0.0000000000000000e+00  -9.6845181070867495e-02 -5.8273584035423241e-04 0.0000000000000000e+00  -3.1015216546924940e-01 2.0638251987993742e-05 0.0000000000000000e+00  1.1502782667375454e-01 2.4860517401227879e-05 0.0000000000000000e+00  -1.7062816436781600e-01 4.0296931907512270e-04 0.0000000000000000e+00  -1.7011561808906106e-01 -4.2974513964204336e-04 0.0000000000000000e+00  1.1502782667375454e-01 2.4860517401227879e-05 0.0000000000000000e+00  -3.1015017513226656e-01 -4.8413019301882499e-05 0.0000000000000000e+00  -1.9188126261396946e-01 -2.8141837006247027e-04 0.0000000000000000e+00  -1.9002889942636345e-01 -8.5414130907882600e-04 0.0000000000000000e+00  1.1427264593878983e-01 -1.3136869674728414e-04 0.0000000000000000e+00  -1.6724207799438524e-02 5.7252851281588100e-03 0.0000000000000000e+00  -1.8016530903415331e-02 9.6663653725990301e-04 0.0000000000000000e+00  -2.7068124453111475e-01 3.4877207410254752e-04 0.0000000000000000e+00  -2.6877759286049396e-01 6.8730643926799779e-04 0.0000000000000000e+00  1.1430490909832411e-01 2.3431790575227657e-04 0.0000000000000000e+00  -1.6724207799438524e-02 5.7252851281588100e-03 0.0000000000000000e+00  -1.8016530903415331e-02 9.6663653725990301e-04 0.0000000000000000e+00  -2.7334632765765832e-01 2.8231578719348171e-03 0.0000000000000000e+00  -2.7243740815418466e-01 -2.0447451388315588e-03 0.0000000000000000e+00  1.1501702681131630e-01 2.1655980101286176e-05 0.0000000000000000e+00  7.4971387643716594e-02 -4.6235448205591786e-04 0.0000000000000000e+00  7.4509117447543363e-02 1.0751503626915107e-03 0.0000000000000000e+00  -2.9815886110038775e-01 -1.5516893117287962e-03 0.0000000000000000e+00  -2.3058280904241268e-01 3.6911519994731542e-04 0.0000000000000000e+00  -2.9949801997092584e-01 -2.1550281843555109e-04 0.0000000000000000e+00  -2.3042169767421322e-01 1.8297726441468081e-03 0.0000000000000000e+00  1.1496991180740301e-01 3.6533653518923206e-05 0.0000000000000000e+00  7.4971387643716594e-02 -4.6235448205591786e-04 0.0000000000000000e+00  7.4509117447543363e-02 1.0751503626915107e-03 0.0000000000000000e+00  -2.6542667967159023e-01 -1.1838244262102407e-02 0.0000000000000000e+00  -2.9843507125032687e-01 -7.5052914430036302e-05 0.0000000000000000e+00  -2.1719313466559320e-01 8.1248863156809556e-04 0.0000000000000000e+00  -2.6632794479469324e-01 1.2772653322934849e-02 0.0000000000000000e+00  -2.9859121802607430e-01 -6.1326499338110239e-04 0.0000000000000000e+00  -2.1941523918603101e-01 3.8405191318863329e-05 0.0000000000000000e+00  8.0412637559326483e-02 1.4859739636622684e-02 0.0000000000000000e+00  1.0384399820497354e-01 -1.7097858306957040e-04 0.0000000000000000e+00  3.4518746690483555e-02 -1.3657430064039364e-03 0.0000000000000000e+00  6.6454604724769425e-02 -2.0087591180425208e-02 0.0000000000000000e+00  1.0386601631639264e-01 4.4667164271086542e-04 0.0000000000000000e+00  3.5038969588376552e-02 -1.4550186764179728e-03 0.0000000000000000e+00  8.5680713943477982e-02 -1.1726105534231047e-02 0.0000000000000000e+00  1.0384399820497354e-01 -1.7097858306957040e-04 0.0000000000000000e+00  3.4518746690483555e-02 -1.3657430064039364e-03 0.0000000000000000e+00  6.7708885984905542e-02 1.7434195353307074e-02 0.0000000000000000e+00  1.0386601631639264e-01 4.4667164271086542e-04 0.0000000000000000e+00  3.5038969588376552e-02 -1.4550186764179728e-03 0.0000000000000000e+00  -2.9895815605295084e-01 -8.6768862121089601e-04 0.0000000000000000e+00  -3.0704487415891329e-01 4.6049821551469675e-05 0.0000000000000000e+00  -2.8627855214992814e-01 -2.3180128038825961e-04 0.0000000000000000e+00  -2.5151523278992649e-01 9.0441483026488113e-04 0.0000000000000000e+00  -2.9994127878449250e-01 3.2790586862354058e-03 0.0000000000000000e+00  -3.0700047252033469e-01 7.3399019182706496e-05 0.0000000000000000e+00  -2.8592694758332227e-01 -6.9194597225370074e-04 0.0000000000000000e+00  -2.5100432898859704e-01 -1.0484428867427399e-03 0.0000000000000000e+00  1.0730442279711765e-01 5.3888061341677662e-04 0.0000000000000000e+00  1.1202984731958657e-01 -1.3680004871562636e-04 0.0000000000000000e+00  9.1869811733083201e-02 3.6464505352079053e-04 0.0000000000000000e+00  5.7181598119058985e-02 -2.2677456605321673e-04 0.0000000000000000e+00  9.3495999694312187e-02 -3.8503140343370116e-03 0.0000000000000000e+00  1.1247150643164572e-01 2.4476416794962866e-05 0.0000000000000000e+00  9.0909245736435815e-02 -2.4169635626764636e-04 0.0000000000000000e+00  5.5619119433872530e-02 -7.2655254942827316e-04 0.0000000000000000e+00  1.0703665422046428e-01 -6.4388603955863402e-04 0.0000000000000000e+00  1.1202984731958657e-01 -1.3680004871562636e-04 0.0000000000000000e+00  9.1869811733083201e-02 3.6464505352079053e-04 0.0000000000000000e+00  5.7181598119058985e-02 -2.2677456605321673e-04 0.0000000000000000e+00  9.0922279361379948e-02 1.9452101460444764e-03 0.0000000000000000e+00  1.1247150643164572e-01 2.4476416794962866e-05 0.0000000000000000e+00  9.0909245736435815e-02 -2.4169635626764636e-04 0.0000000000000000e+00  5.5619119433872530e-02 -7.2655254942827316e-04 0.0000000000000000e+00  -3.0373133756772874e-01 -7.4828861776382702e-04 0.0000000000000000e+00  -3.0956231252036298e-01 4.0718073015043005e-05 0.0000000000000000e+00  -3.0350155417266644e-01 1.3053839493088392e-04 0.0000000000000000e+00  -2.9146647507515155e-01 -2.1369297573096834e-03 0.0000000000000000e+00  -2.9408548226319087e-01 6.4613646273500641e-04 0.0000000000000000e+00  -3.0388399601335808e-01 3.5236194495373303e-04 0.0000000000000000e+00  -3.0923962313051995e-01 2.6159294683842803e-04 0.0000000000000000e+00  -3.0357101712291928e-01 -2.2042679926995132e-05 0.0000000000000000e+00  -2.9628994502975320e-01 2.4796116757423163e-03 0.0000000000000000e+00  -2.9357539790313808e-01 3.8848141165365819e-04 0.0000000000000000e+00  1.0413881743983079e-01 7.4947983284971720e-04 0.0000000000000000e+00  1.1176853144809908e-01 3.0258634436798972e-04 0.0000000000000000e+00  1.1416755108957970e-01 -1.6850881077258443e-04 0.0000000000000000e+00  1.0838195753196450e-01 -7.6075417096688777e-05 0.0000000000000000e+00  9.2232014669332660e-02 9.9528664782483796e-03 0.0000000000000000e+00  8.2826603989267888e-02 -7.9901854231629753e-04 0.0000000000000000e+00  9.6538091656644828e-02 -1.2448710345711256e-04 0.0000000000000000e+00  1.0422140477377760e-01 -3.1616292138812140e-03 0.0000000000000000e+00  1.1231425094146107e-01 -6.7189582357867871e-04 0.0000000000000000e+00  1.1434034012479524e-01 1.1459339707190069e-04 0.0000000000000000e+00  1.0866418573759899e-01 1.2616730725523371e-04 0.0000000000000000e+00  8.9449141080568118e-02 -7.7678986770789845e-03 0.0000000000000000e+00  8.5386979079954586e-02 -1.9012125932744482e-03 0.0000000000000000e+00  9.7172166493218415e-02 5.2787496075270342e-04 0.0000000000000000e+00  1.0243177547962676e-01 -2.6545453586433333e-03 0.0000000000000000e+00  1.1176536801155605e-01 -2.0902799947979014e-04 0.0000000000000000e+00  1.1416755108957970e-01 -1.6850881077258443e-04 0.0000000000000000e+00  1.0838195753196450e-01 -7.6075417096688777e-05 0.0000000000000000e+00  8.7906595308226046e-02 -7.0022444698689332e-03 0.0000000000000000e+00  8.2826603989267888e-02 -7.9901854231629753e-04 0.0000000000000000e+00  9.6538091656644828e-02 -1.2448710345711256e-04 0.0000000000000000e+00  1.0218445556400026e-01 1.6021244171510443e-03 0.0000000000000000e+00  1.1203729709250367e-01 8.4015679547760577e-04 0.0000000000000000e+00  1.1434034012479524e-01 1.1459339707190069e-04 0.0000000000000000e+00  1.0866418573759899e-01 1.2616730725523371e-04 0.0000000000000000e+00  9.2650170797051290e-02 1.3858712065807074e-02 0.0000000000000000e+00  8.5386979079954586e-02 -1.9012125932744482e-03 0.0000000000000000e+00  9.7172166493218415e-02 5.2787496075270342e-04 0.0000000000000000e+00  -2.9976832027547312e-01 -1.1277392439951949e-03 0.0000000000000000e+00  -3.0950405151617555e-01 -1.0135176031311615e-04 0.0000000000000000e+00  -3.0847362014453661e-01 1.9216199778713636e-05 0.0000000000000000e+00  -3.0548018258921694e-01 -5.0426007923618876e-04 0.0000000000000000e+00  -3.0072468527397300e-01 -1.9997498765643248e-04 0.0000000000000000e+00  -3.0552536976366740e-01 7.6609514757520176e-05 0.0000000000000000e+00  -3.0059627399272804e-01 8.9061913211948879e-04 0.0000000000000000e+00  -3.0940010834537240e-01 -2.0990099953355008e-05 0.0000000000000000e+00  -3.0788292480553647e-01 1.1253433556792888e-05 0.0000000000000000e+00  -3.0548280395269151e-01 5.5373298732105990e-04 0.0000000000000000e+00  -3.0151019159304487e-01 3.7091823043885932e-04 0.0000000000000000e+00  -3.0554550733024272e-01 -1.3138912332388806e-04 0.0000000000000000e+00  1.0620162165058653e-01 2.2095298735251164e-03 0.0000000000000000e+00  1.1319605139592304e-01 3.2174951528148396e-05 0.0000000000000000e+00  1.1481571834223678e-01 -6.4823936788668677e-05 0.0000000000000000e+00  1.1327113666740513e-01 -2.8737078307895060e-05 0.0000000000000000e+00  1.0990039630422228e-01 4.2493937391051132e-04 0.0000000000000000e+00  1.0656794007879175e-01 -3.7465528807841453e-04 0.0000000000000000e+00  1.1085722487657801e-01 1.3514866527097229e-04 0.0000000000000000e+00  1.0569574268197521e-01 -1.3910579337554458e-03 0.0000000000000000e+00  1.1362648924061773e-01 -3.2292530555359350e-04 0.0000000000000000e+00  1.1475457360892441e-01 1.3161216438255222e-05 0.0000000000000000e+00  1.1348800397100710e-01 4.5729753842350571e-05 0.0000000000000000e+00  1.1109887676440100e-01 -6.3430070134420284e-04 0.0000000000000000e+00  1.0598779601737832e-01 9.5431702499377925e-05 0.0000000000000000e+00  1.1077800349518897e-01 1.3996954143964004e-04 0.0000000000000000e+00  1.0709030365461912e-01 -2.5579680050866541e-03 0.0000000000000000e+00  1.1341302538913323e-01 -2.7296163459457476e-04 0.0000000000000000e+00  1.1478810269549837e-01 -1.9767490548019745e-04 0.0000000000000000e+00  1.1327113666740513e-01 -2.8737078307895060e-05 0.0000000000000000e+00  1.1000232364518769e-01 -8.3683983514243560e-04 0.0000000000000000e+00  1.0656794007879175e-01 -3.7465528807841453e-04 0.0000000000000000e+00  1.1085722487657801e-01 1.3514866527097229e-04 0.0000000000000000e+00  1.0672193531940220e-01 2.4249591782407433e-03 0.0000000000000000e+00  1.1363069460955179e-01 5.7077978594334642e-04 0.0000000000000000e+00  1.1475310771617364e-01 1.0426744598712490e-04 0.0000000000000000e+00  1.1348800397100710e-01 4.5729753842350571e-05 0.0000000000000000e+00  1.1008259234355926e-01 9.7126292445722060e-04 0.0000000000000000e+00  1.0598779601737832e-01 9.5431702499377925e-05 0.0000000000000000e+00  1.1077800349518897e-01 1.3996954143964004e-04 0.0000000000000000e+00  -3.0994425931279945e-01 -1.6164523420626319e-04 0.0000000000000000e+00  -3.0848203057318507e-01 -6.6944193994081176e-05 0.0000000000000000e+00  -3.0740386808362508e-01 8.7535364914064523e-05 0.0000000000000000e+00  -3.0395601261843530e-01 -4.5970530807674015e-04 0.0000000000000000e+00  -3.0628193975951951e-01 -4.6187170816196899e-04 0.0000000000000000e+00  -3.0617815413123772e-01 -3.8692598879575767e-05 0.0000000000000000e+00  -3.0432035261457657e-01 -1.8638714124447520e-04 0.0000000000000000e+00  -3.1001752866440696e-01 -5.8810287090221470e-05 0.0000000000000000e+00  -3.0829921409730549e-01 1.0108464462552332e-05 0.0000000000000000e+00  -3.0748180518251889e-01 2.9602114894646371e-04 0.0000000000000000e+00  -3.0412857162168122e-01 2.8134991434097866e-04 0.0000000000000000e+00  -3.0630554632724333e-01 2.8316835822743018e-04 0.0000000000000000e+00  -3.0617530239318275e-01 -3.9348459536858012e-05 0.0000000000000000e+00  -3.0439738858428944e-01 1.9504519803176902e-04 0.0000000000000000e+00  1.1243145655020956e-01 2.6927728849015641e-04 0.0000000000000000e+00  1.1479114208485963e-01 -1.0251572182247585e-04 0.0000000000000000e+00  1.1451036988192871e-01 -1.0420047631374550e-04 0.0000000000000000e+00  1.1373151893301212e-01 1.4917848265036791e-05 0.0000000000000000e+00  1.1279795516227514e-01 -7.7387127993688127e-05 0.0000000000000000e+00  1.1375644192660643e-01 -1.4294171115470590e-04 0.0000000000000000e+00  1.1172211160503541e-01 2.7924013901951751e-04 0.0000000000000000e+00  1.1141643434039586e-01 4.5101145456608117e-05 0.0000000000000000e+00  1.1282973549395574e-01 -1.4510105893894486e-04 0.0000000000000000e+00  1.1485781011716102e-01 5.8758667711687043e-05 0.0000000000000000e+00  1.1454105429092429e-01 -7.3290877208751504e-05 0.0000000000000000e+00  1.1362393892487636e-01 -1.2052791586688759e-04 0.0000000000000000e+00  1.1303955112904819e-01 1.2714682365753349e-05 0.0000000000000000e+00  1.1387282834588559e-01 1.2287859203967459e-04 0.0000000000000000e+00  1.0910697394876784e-01 -6.0406721812086958e-04 0.0000000000000000e+00  1.0797950157383168e-01 1.5532567832319080e-04 0.0000000000000000e+00  1.1097418824818049e-01 -4.7194168496281463e-04 0.0000000000000000e+00  1.1169606143447952e-01 1.7418527543642393e-04 0.0000000000000000e+00  1.0978034005166085e-01 1.4740216893807290e-04 0.0000000000000000e+00  1.1269328596152504e-01 -3.8615552955888807e-04 0.0000000000000000e+00  1.1479114208485963e-01 -1.0251572182247585e-04 0.0000000000000000e+00  1.1452168786638819e-01 -1.9862056996370269e-04 0.0000000000000000e+00  1.1370442486190031e-01 -2.6019983484096645e-04 0.0000000000000000e+00  1.1279795516227514e-01 -7.7387127993688127e-05 0.0000000000000000e+00  1.1375644192660643e-01 -1.4294171115470590e-04 0.0000000000000000e+00  1.1140884059494746e-01 -9.7891894756281365e-04 0.0000000000000000e+00  1.1141643434039586e-01 4.5101145456608117e-05 0.0000000000000000e+00  1.1273855071653860e-01 1.0841780306204609e-03 0.0000000000000000e+00  1.1485781011716102e-01 5.8758667711687043e-05 0.0000000000000000e+00  1.1459650211243055e-01 1.8107021100961215e-04 0.0000000000000000e+00  1.1362103337716181e-01 2.7117230725466569e-04 0.0000000000000000e+00  1.1303955112904819e-01 1.2714682365753349e-05 0.0000000000000000e+00  1.1387282834588559e-01 1.2287859203967459e-04 0.0000000000000000e+00  1.1026886864369786e-01 9.7233010145082786e-04 0.0000000000000000e+00  1.0797950157383168e-01 1.5532567832319080e-04 0.0000000000000000e+00  1.1167529627316178e-01 1.0633928659039304e-03 0.0000000000000000e+00  1.1169606143447952e-01 1.7418527543642393e-04 0.0000000000000000e+00  1.0978034005166085e-01 1.4740216893807290e-04 0.0000000000000000e+00  -3.1004931162765803e-01 9.2019870055281135e-06 0.0000000000000000e+00  -3.0969353711710329e-01 -3.2766233041634966e-04 0.0000000000000000e+00  -3.0898702723206595e-01 -2.555734020902