<?xml version="1.0"?>
<VTKFile type="UnstructuredGrid"  version="0.1"  >
<UnstructuredGrid>
<Piece  NumberOfPoints="1333" NumberOfCells="2365">
<Points>
<DataArray  type="Float64"  NumberOfComponents="3"  format="ascii">-0.4960573506572389 0.06266661678215227 0  -0.4960573506572389 -0.06266661678215214 0  -0.4648882429441257 -0.184062276342339 0  -0.4045084971874739 -0.2938926261462363 0  -0.3187119948743448 -0.3852566213878947 0  -0.2128896457825361 -0.4524135262330099 0  -0.09369065729286231 -0.4911436253643444 0  0.03139525976465642 -0.4990133642141358 0  0.1545084971874736 -0.4755282581475768 0  0.2679133974894984 -0.4221639627510075 0  0.3644843137107056 -0.3422735529643445 0  0.4381533400219316 -0.2408768370508581 0  0.4842915805643155 -0.1243449435824277 0  0.5 0 0  0.4842915805643155 0.1243449435824274 0  0.4381533400219318 0.2408768370508577 0  0.3644843137107058 0.3422735529643443 0  0.2679133974894983 0.4221639627510075 0  0.1545084971874737 0.4755282581475768 0  0.03139525976465676 0.4990133642141358 0  -0.0936906572928623 0.4911436253643444 0  -0.2128896457825364 0.4524135262330097 0  -0.3187119948743449 0.3852566213878946 0  -0.4045084971874737 0.2938926261462366 0  -0.4648882429441257 0.1840622763423391 0  -0.9979453927503363 0.06407021998071323 0  -0.9979453927503363 -0.06407021998071299 0  -0.9815591569910653 -0.1911586287013723 0  -0.9490557470106686 -0.3151082180236206 0  -0.9009688679024191 -0.433883739117558 0  -0.8380881048918408 -0.5455349012105485 0  -0.7614459583691346 -0.6482283953077882 0  -0.672300890261317 -0.7402779970753153 0  -0.57211666012217 -0.8201722545969556 0  -0.4625382902408353 -0.886599306373 0  -0.3453650544213073 -0.9384684220497606 0  -0.2225209339563146 -0.9749279121818236 0  -0.09602302590768157 -0.9953791129491982 0  0.03205157757165486 -0.9994862162006879 0  0.1595998950333784 -0.9871817834144503 0  0.284527586631032 -0.9586678530366608 0  0.4047833431223937 -0.9144126230158125 0  0.5183925683105245 -0.8551427630053464 0  0.6234898018587334 -0.7818314824680299 0  0.718349350097727 -0.6956825506034869 0  0.8014136218679559 -0.598110530491217 0  0.8713187041233894 -0.4907175520039379 0  0.9269167573460216 -0.3752670048793746 0  0.9672948630390293 -0.2536545839095075 0  0.9917900138232461 -0.1278771616845066 0  1 0 0  0.9917900138232462 0.127877161684506 0  0.9672948630390295 0.2536545839095073 0  0.9269167573460217 0.3752670048793741 0  0.8713187041233894 0.4907175520039379 0  0.8014136218679566 0.598110530491216 0  0.7183493500977276 0.6956825506034864 0  0.6234898018587336 0.7818314824680298 0  0.5183925683105252 0.8551427630053461 0  0.4047833431223938 0.9144126230158125 0  0.2845275866310324 0.9586678530366606 0  0.1595998950333795 0.9871817834144501 0  0.03205157757165533 0.9994862162006879 0  -0.09602302590768176 0.9953791129491982 0  -0.2225209339563143 0.9749279121818236 0  -0.3453650544213075 0.9384684220497604 0  -0.4625382902408351 0.8865993063730001 0  -0.5721166601221698 0.8201722545969558 0  -0.6723008902613169 0.7402779970753155 0  -0.7614459583691342 0.6482283953077888 0  -0.8380881048918406 0.5455349012105487 0  -0.900968867902419 0.4338837391175582 0  -0.9490557470106685 0.3151082180236213 0  -0.9815591569910653 0.1911586287013725 0  -1 1 0  -1 -1 0  1 -1 0  1 1 0  1 -0.512561759845706 0  1 0.5125617598457033 0  0 1 0  -1 0 0  0 -1 0  1 -0.2562808799228529 0  1 0.2562808799228516 0  -0.03198572416801321 0.9974326645749431 0  -0.5 1 0  0.5 1 0  -0.9979453927503363 1.179611963664229e-16 0  -1 0.5 0  -1 -0.5 0  -0.03198572416801335 -0.9974326645749431 0  -0.5 -1 0  0.5 -1 0  1 -0.1281404399614265 0  1 -0.3844213198842794 0  1 0.1281404399614258 0  1 0.3844213198842775 0  3.29267018210587e-05 0.9984594403878155 0  -0.25 1 0  0.25 1 0  -1 0.25 0  -1 -0.25 0  3.292670182075338e-05 -0.9984594403878155 0  -0.25 -1 0  0.25 -1 0  -0.2839429941888109 0.956698167115792 0  -0.125 1 0  -0.375 1 0  0.222063740832206 0.9729248182255553 0  0.125 1 0  0.375 1 0  -0.9653074520008669 0.2531334233624969 0  -1 0.125 0  -1 0.375 0  -0.965307452000867 -0.2531334233624964 0  -1 -0.125 0  -1 -0.375 0  -0.283942994188811 -0.9566981671157921 0  -0.125 -1 0  -0.375 -1 0  0.2220637408322052 -0.9729248182255555 0  0.125 -1 0  0.375 -1 0  -0.159271979931998 0.9851535125655109 0  -0.0625 1 0  -0.1875 1 0  -0.3125 1 0  0.09582573630251744 0.993333999807569 0  0.0625 1 0  0.1875 1 0  0.3125 1 0  -0.9897522748707008 0.1276144243410429 0  -1 0.0625 0  -1 0.1875 0  -1 0.3125 0  -0.9897522748707008 -0.1276144243410426 0  -1 -0.0625 0  -1 -0.1875 0  -1 -0.3125 0  -0.1592719799319981 -0.9851535125655109 0  -0.0625 -1 0  -0.1875 -1 0  -0.3125 -1 0  0.09582573630251663 -0.9933339998075691 0  0.0625 -1 0  0.1875 -1 0  0.3125 -1 0  -0.1276475029198399 0.9902663127573545 0  -0.06400437503784749 0.9964058887620706 0  -0.03125 1 0  -0.09375 1 0  -0.1908964569441562 0.9800407123736672 0  -0.21875 1 0  -0.15625 1 0  0.1277128156679485 0.9902578916110095 0  0.06393865693708639 0.9964101080041284 0  0.03125 1 0  0.09375 1 0  0.1908318179327927 0.9800533008200027 0  0.21875 1 0  0.15625 1 0  -0.9938488338105186 0.09584232216087807 0  -0.9979453927503363 0.03203510999035668 0  -1 0.09375 0  -0.9856557159308831 0.1593865265212077 0  -1 0.15625 0  -0.9938488338105186 -0.09584232216087782 0  -0.9979453927503363 -0.03203510999035644 0  -1 -0.09375 0  -0.9856557159308831 -0.1593865265212075 0  -1 -0.15625 0  -0.1276475029198398 -0.9902663127573545 0  -0.06400437503784746 -0.9964058887620706 0  -0.03125 -1 0  -0.09375 -1 0  -0.1908964569441563 -0.9800407123736672 0  -0.21875 -1 0  -0.15625 -1 0  0.1277128156679475 -0.9902578916110096 0  0.06393865693708575 -0.9964101080041285 0  0.03125 -1 0  0.09375 -1 0  0.1908318179327918 -0.980053300820003 0  0.21875 -1 0  0.15625 -1 0  -0.1118352644137608 0.9928227128532764 0  -0.04799504960293036 0.9969192766685069 0  -0.01597639873309608 0.9979460524813792 0  -0.046875 1 0  -0.08001370047276463 0.9958925008556344 0  -0.109375 1 0  -0.078125 1 0  0.111769275985233 0.9917959457092893 0  0.04799511725437086 0.9979481621024082 0  0.0160422521367382 0.9989728282942517 0  0.046875 1 0  0.07988219661980192 0.9948720539058487 0  0.109375 1 0  0.078125 1 0  -0.9918005543406097 0.1117283732509605 0  -1 0.03125 0  -0.9979453927503363 0.04805266498553495 0  -0.9958971132804275 0.07995627107079564 0  -1 0.109375 0  -1 0.078125 0  -0.9918005543406097 -0.1117283732509602 0  -1 -0.03125 0  -0.9979453927503363 -0.04805266498553472 0  -0.9958971132804275 -0.07995627107079541 0  -1 -0.109375 0  -1 -0.078125 0  -0.1118352644137607 -0.9928227128532764 0  -0.04799504960293041 -0.9969192766685069 0  -0.0159763987330963 -0.9979460524813792 0  -0.046875 -1 0  -0.08001370047276452 -0.9958925008556344 0  -0.109375 -1 0  -0.078125 -1 0  0.1117692759852321 -0.9917959457092893 0  0.04799511725437031 -0.9979481621024082 0  0.01604225213673781 -0.9989728282942517 0  0.046875 -1 0  0.0798821966198012 -0.9948720539058489 0  0.109375 -1 0  0.078125 -1 0  -0.05599971232038892 0.9966625827152887 0  -0.015625 1 0  -0.02398106145055465 0.9976893585281612 0  -0.03999038688547178 0.9971759706217249 0  -0.0546875 1 0  -0.0390625 1 0  -0.08801836319022319 0.9956358069024163 0  -0.1015625 1 0  -0.07200903775530607 0.9961491948088526 0  -0.0703125 1 0  -0.0859375 1 0  0.05596688709572863 0.9971791350532684 0  0.015625 1 0  0.02404691485419676 0.9992295222474699 0  0.0400233474130131 0.9987171891515481 0  0.0546875 1 0  0.0390625 1 0  0.07191042677844416 0.9956410809549885 0  0.0703125 1 0  -0.9979453927503363 0.0160175549951784 0  -1 0.046875 0  -0.9979453927503363 0.05606144248312409 0  -0.9948729735454731 0.08789929661583686 0  -0.9969212530153819 0.07201324552575444 0  -1 0.0703125 0  -1 0.0859375 0  -0.9979453927503363 -0.01601755499517816 0  -1 -0.046875 0  -0.9979453927503363 -0.05606144248312386 0  -0.9948729735454731 -0.08789929661583662 0  -0.9969212530153819 -0.07201324552575419 0  -1 -0.0703125 0  -1 -0.0859375 0  -0.05599971232038894 -0.9966625827152887 0  -0.015625 -1 0  -0.02398106145055483 -0.9976893585281612 0  -0.03999038688547188 -0.9971759706217249 0  -0.0546875 -1 0  -0.0390625 -1 0  -0.08801836319022305 -0.9956358069024163 0  -0.1015625 -1 0  -0.07200903775530598 -0.9961491948088526 0  -0.0703125 -1 0  -0.0859375 -1 0  0.05596688709572803 -0.9971791350532684 0  0.015625 -1 0  0.02404691485419633 -0.9992295222474699 0  0.04002334741301258 -0.9987171891515481 0  0.0546875 -1 0  0.0390625 -1 0  0.07191042677844348 -0.9956410809549887 0  0.0703125 -1 0  -0.00797173601563751 0.9982027464345974 0  -0.0234375 1 0  -0.1039291451607213 0.9941009129012373 0  0.008037589419279628 0.9987161343410336 0  0.0234375 1 0  0.02804924621292605 0.9993578692240789 0  0.04400923233369198 0.9983326756269781 0  0.05198100217504974 0.9975636485778383 0  0.05859375 1 0  0.05078125 1 0  0.03603746249233421 0.999101702676118 0  0.03515625 1 0  0.04296875 1 0  -1 0.015625 0  -0.9979453927503363 0.02402633249276754 0  -0.9979453927503363 0.04004388748794582 0  -1 0.0546875 0  -1 0.0390625 0  -0.9979453927503363 0.06006583123191866 0  -0.9974333228828591 0.06804173275323383 0  -1 0.06640625 0  -1 0.07421875 0  -1 -0.015625 0  -0.9979453927503363 -0.0240263324927673 0  -0.9979453927503363 -0.04004388748794558 0  -1 -0.0546875 0  -1 -0.0390625 0  -0.9979453927503363 -0.06006583123191843 0  -0.9974333228828591 -0.06804173275323359 0  -1 -0.06640625 0  -1 -0.07421875 0  -0.007971736015637774 -0.9982027464345974 0  -0.0234375 -1 0  -0.1039291451607211 -0.9941009129012373 0  0.008037589419279281 -0.9987161343410336 0  0.0234375 -1 0  0.0280492462129256 -0.9993578692240789 0  0.04400923233369144 -0.9983326756269781 0  0.05198100217504917 -0.9975636485778383 0  0.05859375 -1 0  0.05078125 -1 0  0.03603746249233372 -0.999101702676118 0  0.03515625 -1 0  0.04296875 -1 0  -0.0078125 1 0  0.0078125 1 0  0.01203992077800891 0.9988444813176427 0  0.02004458349546748 0.9991011752708607 0  0.02734375 1 0  0.01953125 1 0  0.03005041189
[...]
<PointData  Vectors="f_87"> 
<DataArray  type="Float64"  Name="f_87"  NumberOfComponents="3" format="ascii">-1.5490394984605374e-01 -8.1328298436466953e-02 0.0000000000000000e+00  -7.6702774344035732e-02 -2.7024298915934780e-01 0.0000000000000000e+00  -1.9871024245334290e-01 -4.3016468858931262e-01 0.0000000000000000e+00  -2.3541584412987340e-02 -4.0561553030315572e-01 0.0000000000000000e+00  2.1650735577845998e-01 -3.0760945167978049e-01 0.0000000000000000e+00  3.2787299733372149e-01 -1.7046508338132055e-01 0.0000000000000000e+00  3.8913277514836042e-01 -9.1597490000204312e-02 0.0000000000000000e+00  4.7633467328293078e-01 9.2136907976555368e-02 0.0000000000000000e+00  5.0781588573176617e-01 2.5673437538887500e-01 0.0000000000000000e+00  2.6002373190208494e-01 5.4020960415824515e-01 0.0000000000000000e+00  9.3838385242966227e-02 5.6566227923171253e-01 0.0000000000000000e+00  1.5523674739106486e-01 2.4186831380095261e-01 0.0000000000000000e+00  3.2944486800194260e-02 2.7085310859656261e-02 0.0000000000000000e+00  -6.5913211426381346e-03 -1.8676574847259012e-01 0.0000000000000000e+00  -1.9476485254030326e-01 -3.7271946130887385e-01 0.0000000000000000e+00  -1.6829851693983922e-02 -3.9126297405197280e-01 0.0000000000000000e+00  1.9881855662623418e-01 -2.9386675971251730e-01 0.0000000000000000e+00  2.6472460107561557e-01 -2.4681258329674077e-01 0.0000000000000000e+00  3.8252664211583060e-01 -1.6819309053884821e-01 0.0000000000000000e+00  4.1398648597245941e-01 -1.4968376490484950e-02 0.0000000000000000e+00  4.3877342355062687e-01 2.0427925579426451e-01 0.0000000000000000e+00  4.3990834746960539e-01 2.8297115895969849e-01 0.0000000000000000e+00  1.3533297115990345e-01 6.0872475372866908e-01 0.0000000000000000e+00  2.1139205094673383e-01 3.7062721847971841e-01 0.0000000000000000e+00  -1.3612214132870673e-01 2.1436781487031936e-01 0.0000000000000000e+00  -1.7168619006108007e-01 -8.5527260622987687e-04 0.0000000000000000e+00  -1.9394193706341373e-01 -5.8997893444641347e-05 0.0000000000000000e+00  -2.1299784712962166e-01 1.0028120593899036e-02 0.0000000000000000e+00  -2.0677891118882338e-01 2.2696195494558528e-03 0.0000000000000000e+00  -1.7672432187049170e-01 -1.4588935063634402e-02 0.0000000000000000e+00  -1.3881705506628014e-01 -4.1063297469670891e-02 0.0000000000000000e+00  -9.0434781738293724e-02 -6.5101054261962735e-02 0.0000000000000000e+00  -4.3228071425368136e-02 -7.6415603462581735e-02 0.0000000000000000e+00  -1.4649866978570524e-02 -7.9831701952555900e-02 0.0000000000000000e+00  4.0086353479923106e-02 -7.5013231669896874e-02 0.0000000000000000e+00  -3.6876437089927634e-03 -3.3277713785152929e-02 0.0000000000000000e+00  1.8930928475007543e-02 -4.0605204497080306e-02 0.0000000000000000e+00  3.9872586607209298e-02 -4.0332387157927335e-02 0.0000000000000000e+00  4.3084049803350968e-02 1.1982534488862863e-02 0.0000000000000000e+00  5.5358858558250047e-02 3.0212973505290713e-02 0.0000000000000000e+00  6.5061746007079920e-03 2.6196623658833847e-02 0.0000000000000000e+00  9.9889584629916182e-03 2.7840852382608257e-02 0.0000000000000000e+00  -3.4775515944874794e-03 6.2813417539743358e-02 0.0000000000000000e+00  -2.6864570489274323e-02 5.7275956034668424e-02 0.0000000000000000e+00  -6.3688637599549333e-02 3.9088212055386533e-02 0.0000000000000000e+00  -8.7792781130623707e-02 4.2705059423157984e-02 0.0000000000000000e+00  -1.0650896366510477e-01 2.2865777085502279e-02 0.0000000000000000e+00  -1.1586114658531044e-01 1.0056779262997292e-02 0.0000000000000000e+00  -1.4779826856324380e-01 1.2814129999498880e-02 0.0000000000000000e+00  -1.6542352702493660e-01 7.0219780018051471e-03 0.0000000000000000e+00  -1.9103503797441287e-01 2.5666825809908442e-03 0.0000000000000000e+00  -2.1618882883501081e-01 5.7365389531538850e-03 0.0000000000000000e+00  -2.1088654484783689e-01 7.2221587192254121e-03 0.0000000000000000e+00  -1.8392546676977259e-01 -8.3758637038239669e-03 0.0000000000000000e+00  -1.4813160171167181e-01 -2.3196550543495668e-02 0.0000000000000000e+00  -1.0126838959706812e-01 -4.5723535116475124e-02 0.0000000000000000e+00  -6.2636932268253925e-02 -6.6409037606298127e-02 0.0000000000000000e+00  -4.2041187631417620e-02 -8.2002093358445369e-02 0.0000000000000000e+00  -1.9220322643756606e-03 -7.7973922516102953e-02 0.0000000000000000e+00  3.1751912926129597e-02 -5.1335929043511419e-02 0.0000000000000000e+00  1.2404111923882181e-02 -4.0618248889440531e-02 0.0000000000000000e+00  1.2581280521654428e-02 -1.9062813284279903e-02 0.0000000000000000e+00  2.4484199061336261e-02 -2.0103079039493859e-02 0.0000000000000000e+00  3.1673521585349758e-02 1.0784306659943121e-02 0.0000000000000000e+00  5.3304741319405704e-03 1.3304751596694361e-02 0.0000000000000000e+00  2.2250299567508333e-02 2.8859331957430751e-02 0.0000000000000000e+00  -5.8509280548390231e-03 3.6212389855768766e-02 0.0000000000000000e+00  -1.7947187194005544e-02 5.6651984285239480e-02 0.0000000000000000e+00  -5.1130213970065924e-02 5.2198851813737422e-02 0.0000000000000000e+00  -7.3236896854785960e-02 4.2308885110615771e-02 0.0000000000000000e+00  -9.1239195834927844e-02 2.7369028653592069e-02 0.0000000000000000e+00  -1.0957978004536893e-01 1.3211991513053868e-02 0.0000000000000000e+00  -1.3199864276869536e-01 1.8718490218109913e-02 0.0000000000000000e+00  -1.4963117602641038e-01 9.1262304124243663e-03 0.0000000000000000e+00  -1.8766833412050318e-02 9.1841500394528458e-03 0.0000000000000000e+00  -1.8766833412050318e-02 9.1841500394528458e-03 0.0000000000000000e+00  -4.3237518296081509e-02 3.2780805154229278e-02 0.0000000000000000e+00  -4.3237518296081509e-02 3.2780805154229278e-02 0.0000000000000000e+00  -8.5729479383061150e-02 1.9556573929436667e-03 0.0000000000000000e+00  -1.5677966228465678e-01 4.2986338949217318e-03 0.0000000000000000e+00  2.3074174012539351e-02 1.4334225084848143e-02 0.0000000000000000e+00  -1.8514449750968620e-01 -1.8068157658262245e-03 0.0000000000000000e+00  2.3074174012539351e-02 1.4334225084848143e-02 0.0000000000000000e+00  -1.0310186025070804e-01 -6.9454527346382122e-04 0.0000000000000000e+00  -2.6591532701870357e-01 -3.5102594967863937e-03 0.0000000000000000e+00  3.3284417998308613e-02 -5.6542757002210967e-03 0.0000000000000000e+00  -1.2195799235407036e-02 -3.4055423181985754e-02 0.0000000000000000e+00  5.1647684867312759e-05 -2.8150137264988186e-02 0.0000000000000000e+00  -1.8757799158223695e-01 2.5772996608944333e-03 0.0000000000000000e+00  -8.5332970898757576e-02 1.2844913306898339e-04 0.0000000000000000e+00  -1.8512405831818868e-01 -2.5518834538220633e-03 0.0000000000000000e+00  2.9308223709614074e-02 -8.5192003718194461e-03 0.0000000000000000e+00  -1.2195799235407036e-02 -3.4055423181985754e-02 0.0000000000000000e+00  5.1647684867312759e-05 -2.8150137264988186e-02 0.0000000000000000e+00  -1.3766563822032887e-01 -4.0093229969503973e-03 0.0000000000000000e+00  -9.3093028291556093e-02 -5.7410338127716655e-03 0.0000000000000000e+00  -2.4721805954566672e-01 -8.2709274328343377e-07 0.0000000000000000e+00  -2.4845636511068589e-01 -5.1726882059513922e-03 0.0000000000000000e+00  1.0716138771303582e-02 -1.3118282257531474e-02 0.0000000000000000e+00  3.1052812704417929e-02 -2.7763825388898974e-02 0.0000000000000000e+00  2.8484196152674907e-02 -2.5831361251184105e-02 0.0000000000000000e+00  -1.2981334644201539e-01 -4.9055671002166930e-03 0.0000000000000000e+00  -2.5478933592305486e-01 -3.2302810726409208e-03 0.0000000000000000e+00  2.3237273101670074e-02 -1.6774832169271119e-03 0.0000000000000000e+00  3.1052812704417929e-02 -2.7763825388898974e-02 0.0000000000000000e+00  2.8484196152674907e-02 -2.5831361251184105e-02 0.0000000000000000e+00  2.8210886945080772e-02 2.6916873859048507e-02 0.0000000000000000e+00  4.0599805182521667e-02 -3.4240901778908796e-02 0.0000000000000000e+00  7.1257524389532244e-03 7.4296563259171958e-03 0.0000000000000000e+00  4.4584002762436827e-02 -4.3515482364280690e-02 0.0000000000000000e+00  2.8397152583747889e-02 -2.4420463394844417e-02 0.0000000000000000e+00  2.3085131277608049e-02 -4.9606786008553738e-03 0.0000000000000000e+00  -1.3109885611649871e-01 1.3906489772959392e-02 0.0000000000000000e+00  -1.3015796728098733e-01 -6.8062551756441941e-04 0.0000000000000000e+00  -7.7794590246858017e-02 -7.3940486493650048e-03 0.0000000000000000e+00  -2.1766493086889735e-01 2.4743148547712356e-03 0.0000000000000000e+00  -2.2195282277559428e-01 -4.5797541660755328e-03 0.0000000000000000e+00  -2.3131146514802278e-01 -7.1943196349734621e-03 0.0000000000000000e+00  1.2252432270228415e-02 -3.7722758601373953e-02 0.0000000000000000e+00  4.0599805182521667e-02 -3.4240901778908796e-02 0.0000000000000000e+00  7.1257524389532244e-03 7.4296563259171958e-03 0.0000000000000000e+00  1.8045583590718041e-02 2.2445091424022599e-02 0.0000000000000000e+00  2.8397152583747889e-02 -2.4420463394844417e-02 0.0000000000000000e+00  2.3085131277608049e-02 -4.9606786008553738e-03 0.0000000000000000e+00  1.4726253843495419e-02 3.6440023227727650e-03 0.0000000000000000e+00  4.3113053715655103e-02 -4.2376199635578392e-02 0.0000000000000000e+00  2.8617472662063746e-02 -3.2752574681282408e-03 0.0000000000000000e+00  3.5808781540318836e-02 -1.1051332052931663e-02 0.0000000000000000e+00  3.2198092493084925e-02 -2.2266422153110834e-02 0.0000000000000000e+00  5.0197193813771489e-02 -3.9875892584824428e-02 0.0000000000000000e+00  3.5768323966620448e-02 1.6898514785683324e-02 0.0000000000000000e+00  2.7213557690625233e-02 -2.8413283584959328e-02 0.0000000000000000e+00  -1.6386961672158520e-01 1.2839662341875909e-02 0.0000000000000000e+00  -1.5946917545896655e-01 1.6374666690906407e-04 0.0000000000000000e+00  -1.0917587645619270e-01 2.4245064366084051e-03 0.0000000000000000e+00  -1.0387635784949703e-01 -5.2157274730661415e-04 0.0000000000000000e+00  -2.1820831017650058e-01 1.0878276226457187e-02 0.0000000000000000e+00  -2.1659002894547960e-01 -2.1673796510438771e-04 0.0000000000000000e+00  -2.5735387028142354e-01 -3.6751765298006652e-03 0.0000000000000000e+00  -2.5437649471972623e-01 -2.0847406607844210e-03 0.0000000000000000e+00  3.7054731697792762e-02 -3.5331605612307665e-02 0.0000000000000000e+00  4.3113053715655103e-02 -4.2376199635578392e-02 0.0000000000000000e+00  2.8617472662063746e-02 -3.2752574681282408e-03 0.0000000000000000e+00  3.5808781540318836e-02 -1.1051332052931663e-02 0.0000000000000000e+00  2.4168937294583102e-02 2.9764000676356294e-03 0.0000000000000000e+00  5.0197193813771489e-02 -3.9875892584824428e-02 0.0000000000000000e+00  3.5768323966620448e-02 1.6898514785683324e-02 0.0000000000000000e+00  2.7213557690625233e-02 -2.8413283584959328e-02 0.0000000000000000e+00  5.5195026530617280e-02 8.4058060490726904e-03 0.0000000000000000e+00  4.0501151087513204e-02 7.0884637955172629e-03 0.0000000000000000e+00  3.1543856974186851e-02 5.7184283941641358e-04 0.0000000000000000e+00  3.0312783207877277e-02 -2.8277755681254912e-02 0.0000000000000000e+00  2.6672424749583631e-02 2.0561942854208374e-02 0.0000000000000000e+00  2.7931067768273348e-02 -2.4552272209295480e-02 0.0000000000000000e+00  2.8973731488282129e-02 3.6317768243099367e-02 0.0000000000000000e+00  3.0328976937194458e-02 -3.4881773673503931e-02 0.0000000000000000e+00  4.2980914610182060e-02 -9.3427373837152577e-03 0.0000000000000000e+00  3.2177648692728246e-02 -3.2043327599797077e-02 0.0000000000000000e+00  2.6068236745128297e-02 -5.3284933432593577e-03 0.0000000000000000e+00  3.1227549468158731e-02 -3.4537550271468848e-02 0.0000000000000000e+00  2.6598600096768159e-02 -1.0914022887905651e-04 0.0000000000000000e+00  3.6300973284987714e-02 -5.7947516567907968e-02 0.0000000000000000e+00  -1.6091541080952620e-01 3.4482424707421586e-03 0.0000000000000000e+00  -1.8246208142829037e-01 1.2568326660423426e-04 0.0000000000000000e+00  -1.6209951060619865e-01 -1.6230686086909877e-03 0.0000000000000000e+00  -1.4994397096797493e-01 1.0887221910737752e-02 0.0000000000000000e+00  -1.4231928419302398e-01 -4.4382784235663126e-03 0.0000000000000000e+00  -2.0125571722019037e-01 3.1932016368243616e-03 0.0000000000000000e+00  -1.9240070220994604e-01 -7.2103466123384194e-04 0.0000000000000000e+00  -2.1254621080360087e-01 -1.0760790650379490e-03 0.0000000000000000e+00  -2.1225695444437739e-01 3.5989947224971549e-03 0.0000000000000000e+00  -2.5716881057521279e-01 -1.8089092240430574e-03 0.0000000000000000e+00  1.9123486846781917e-02 -1.0261782404261788e-02 0.0000000000000000e+00  3.8941651694403577e-02 -2.2903586846474578e-02 0.0000000000000000e+00  3.1543856974186851e-02 5.7184283941641358e-04 0.0000000000000000e+00  3.0312783207877277e-02 -2.8277755681254912e-02 0.0000000000000000e+00  3.8041338779347442e-02 -3.3147449358161198e-02 0.0000000000000000e+00  2.7931067768273348e-02 -2.4552272209295480e-02 0.0000000000000000e+00  2.8973731488282129e-02 3.6317768243099367e-02 0.0000000000000000e+00  3.1191460409548344e-02 1.1871390773473812e-02 0.0000000000000000e+00  4.1752405421109799e-02 2.1848816849027934e-03 0.0000000000000000e+00  3.2177648692728246e-02 -3.2043327599797077e-02 0.0000000000000000e+00  2.6068236745128297e-02 -5.3284933432593577e-03 0.0000000000000000e+00  3.2390556645531685e-02 1.7328426723945155e-02 0.0000000000000000e+00  2.6598600096768159e-02 -1.0914022887905651e-04 0.0000000000000000e+00  3.6300973284987714e-02 -5.7947516567907968e-02 0.0000000000000000e+00  5.2412196397804783e-02 1.8431002392579002e-02 0.0000000000000000e+00  2.9179075007912652e-02 5.3911039488815597e-03 0.0000000000000000e+00  4.5918546628175162e-02 1.6592990653799444e-02 0.0000000000000000e+00  2.4047578486424512e-02 -1.4413974169036994e-02 0.0000000000000000e+00  2.4992086476520774e-02 1.0581861222694452e-03 0.0000000000000000e+00  5.9859701359188090e-02 -8.6935889716708056e-02 0.0000000000000000e+00  2.5038725204014404e-02 1.9254479371434929e-02 0.0000000000000000e+00  3.3944002771308678e-02 -2.6277382277091397e-02 0.0000000000000000e+00  5.0844437346432340e-02 -5.9637614584537035e-03 0.0000000000000000e+00  2.8599058403528520e-02 -1.2444265764537679e-02 0.0000000000000000e+00  6.0341187675284881e-02 -6.3058195475933013e-02 0.0000000000000000e+00  3.9124594400910255e-02 -2.0865177378022955e-02 0.0000000000000000e+00  2.6661674101665953e-02 -1.8887697174958834e-02 0.0000000000000000e+00  3.4850672425153613e-02 3.2873822130567283e-02 0.0000000000000000e+00  -1.6592938498104423e-01 4.7440905992466977e-03 0.0000000000000000e+00  -1.8137982125276081e-01 1.7017292079414611e-03 0.0000000000000000e+00  -1.7364954090033369e-01 3.6390558918939175e-04 0.0000000000000000e+00  -1.6790679148450907e-01 2.0395917055593465e-03 0.0000000000000000e+00  -1.5249756494406164e-01 5.4163889089535280e-05 0.0000000000000000e+00  -1.6543550858867934e-01 -5.9875563853997857e-04 0.0000000000000000e+00  -2.0439211399356036e-01 6.1184724821693745e-03 0.0000000000000000e+00  -1.9223004226853949e-01 -3.5211865063502796e-04 0.0000000000000000e+00  -1.9487842429067689e-01 1.6688781355424741e-04 0.0000000000000000e+00  -2.0031473874236250e-01 1.6311490107962989e-03 0.0000000000000000e+00  -2.2346010321606413e-01 -1.0552770948464263e-04 0.0000000000000000e+00  -2.0821115460435449e-01 -8.4810115518511853e-04 0.0000000000000000e+00  3.0218308211235084e-02 -2.2830835453900584e-02 0.0000000000000000e+00  2.9891462088325420e-02 -1.9457572800816569e-02 0.0000000000000000e+00  6.0658384400444056e-02 -3.6311927251367386e-02 0.0000000000000000e+00  2.4047578486424512e-02 -1.4413974169036994e-02 0.0000000000000000e+00  3.7122112098735026e-02 -2.5265209141202470e-02 0.0000000000000000e+00  5.9859701359188090e-02 -8.6935889716708056e-02 0.0000000000000000e+00  2.5038725204014404e-02 1.9254479371434929e-02 0.0000000000000000e+00  2.6144335809309437e-02 6.8958635032419380e-03 0.0000000000000000e+00  5.3035983595027335e-02 1.3166703394623764e-04 0.0000000000000000e+00  2.8695791548919072e-02 2.3827284437519001e-04 0.0000000000000000e+00  6.0341187675284881e-02 -6.3058195475933013e-02 0.0000000000000000e+00  3.9491340622351712e-02 3.4346162736135642e-04 0.0000000000000000e+00  2.6661674101665953e-02 -1.8887697174958834e-02 0.0000000000000000e+00  3.4850672425153613e-02 3.2873822130567283e-02 0.0000000000000000e+00  2.1755718400927514e-02 9.0881057682811010e-03 0.0000000000000000e+00  4.2272511669051570e-02 -3.5266749691735419e-02 0.0000000000000000e+00  4.7555274281183627e-02 -6.2458452446750128e-03 0.0000000000000000e+00  2.1140787081045997e-02 -4.1955445522928658e-03 0.0000000000000000e+00  2.9369447195211121e-02 -1.7577043772738034e-02 0.0000000000000000e+00  2.8726408684830382e-02 -3.8009266560166586e-03 0.0000000000000000e+00  2.5871571829337629e-02 6.5314182412081834e-03 0.0000000000000000e+00  1.9776574129802976e-02 -3.5220939623731122e-02 0.0000000000000000e+00  5.2750338529995160e-02 -6.8156504425015150e-03 0.0000000000000000e+00  4.3298568745683323e-02 -2.4810009140993076e-02 0.0000000000000000e+00  3.0378472401286001e-02 1.1337083972608704e-03 0.0000000000000000e+00  3.5718335084663259e-02 -1.5736360831984278e-02 0.0000000000000000e+00  2.8077579293032531e-02 3.7929802523414134e-03 0.0000000000000000e+00  2.8779038977733720e-02 -1.9158486824328150e-02 0.0000000000000000e+00  6.3935157304090022e-03 5.8629964443960771e-02 0.0000000000000000e+00  2.1521721462589939e-02 1.0461749756833866e-02 0.0000000000000000e+00  1.0420703502157196e-01 -1.8658680047826481e-01 0.0000000000000000e+00  1.5219859183441081e-02 -5.3688327190318831e-03 0.0000000000000000e+00  3.6627174603806600e-02 -3.0547490901394206e-02 0.0000000000000000e+00  -1.9490860515757355e-01 -1.2701084864829638e-02 0.0000000000000000e+00  -1.7017504384037996e-01 -6.4789879312712357e-05 0.0000000000000000e+00  -1.7424684320899159e-01 1.1985341573035730e-03 0.0000000000000000e+00  -1.6618013134699436e-01 1.2204236267670532e-03 0.0000000000000000e+00  -1.7169955542362994e-01 1.0105615679095209e-03 0.0000000000000000e+00  -1.6252873107656721e-01 -4.0416910984074702e-04 0.0000000000000000e+00  -1.5943181706809889e-01 8.3322779657210035e-04 0.0000000000000000e+00  -1.8742819083766465e-01 -5.1890798400474293e-03 0.0000000000000000e+00  -2.0233648417966321e-01 -2.4858411360987416e-04 0.0000000000000000e+00  -1.9553131725809106e-01 3.0879193815557130e-03 0.0000000000000000e+00  -1.9692066866574628e-01 2.6858489333253174e-03 0.0000000000000000e+00  -1.9510928879001241e-01 7.7761601910028967e-04 0.0000000000000000e+00  -2.0993485994318242e-01 -9.1411339838252872e-04 0.0000000000000000e+00  -2.1279424366268215e-01 -3.6352023770890149e-04 0.0000000000000000e+00  3.8277075613313193e-02 -2.0166039592066837e-02 0.0000000000000000e+00  4.2272511669051570e-02 -3.5266749691735419e-02 0.0000000000000000e+00  2.6964895297749304e-02 -9.0159797278973452e-03 0.0000000000000000e+00  2.9607693711353189e-02 -1.3656052926976130e-02 0.0000000000000000e+00  2.9369447195211121e-02 -1.7577043772738034e-02 0.0000000000000000e+00  2.8726408684830382e-02 -3.8009266560166586e-03 0.0000000000000000e+00  4.4820764631296542e-02 -3.1190582070136200e-02 0.0000000000000000e+00  1.9776574129802976e-02 -3.5220939623731122e-02 0.0000000000000000e+00  1.3969423970932166e-02 -3.9757921604875101e-03 0.0000000000000000e+00  4.3298568745683323e-02 -2.4810009140993076e-02 0.0000000000000000e+00  3.0378472401286001e-02 1.1337083972608704e-03 0.0000000000000000e+00  2.9340601192728452e-02 -1.1142240080854680e-02 0.0000000000000000e+00  2.8077579293032531e-02 3.7929802523414134e-03 0.0000000000000000e+00  2.7931085097535033e-02 7.6412885982973903e-03 0.0000000000000000e+00  1.0268378315939089e-01 -2.8017397916616772e-02 0.0000000000000000e+00  2.1521721462589939e-02 1.0461749756833866e-02 0.0000000000000000e+00  1.0420703502157196e-01 -1.8658680047826481e-01 0.0000000000000000e+00  5.7449968495385494e-02 2.5345867395078310e-03 0.0000000000000000e+00  3.6627174603806600e-02 -3.0547490901394206e-02 0.0000000000000000e+00  2.9679460185660221e-02 -4.6045113938502253e-04 0.0000000000000000e+00  4.8586748437654009e-02 2.3642791037499587e-02 0.0000000000000000e+00  9.11258928313300