<?xml version="1.0"?>
<VTKFile type="UnstructuredGrid"  version="0.1"  >
<UnstructuredGrid>
<Piece  NumberOfPoints="1461" NumberOfCells="2789">
<Points>
<DataArray  type="Float64"  NumberOfComponents="3"  format="ascii">-0.5 6.123233995736766e-17 0  -0.4914865498419509 -0.09187475890828506 0  -0.466236114702178 -0.1806208330935763 0  -0.4251085678648071 -0.2632160814386779 0  -0.3695044586103295 -0.3368478218232786 0  -0.3013173181896286 -0.3990086136401195 0  -0.2228691778882694 -0.447581645677531 0  -0.1368314950360416 -0.4809128215864095 0  -0.04613417973165096 -0.4978670881475173 0  0.04613417973165122 -0.4978670881475172 0  0.1368314950360414 -0.4809128215864095 0  0.2228691778882688 -0.4475816456775313 0  0.3013173181896281 -0.3990086136401199 0  0.3695044586103293 -0.3368478218232789 0  0.4251085678648069 -0.2632160814386781 0  0.4662361147021779 -0.1806208330935765 0  0.4914865498419509 -0.09187475890828503 0  0.5 0 0  0.4914865498419509 0.09187475890828517 0  0.4662361147021779 0.1806208330935765 0  0.4251085678648071 0.2632160814386779 0  0.3695044586103295 0.3368478218232786 0  0.3013173181896282 0.3990086136401197 0  0.2228691778882692 0.4475816456775312 0  0.1368314950360415 0.4809128215864095 0  0.04613417973165101 0.4978670881475172 0  -0.04613417973165095 0.4978670881475173 0  -0.1368314950360414 0.4809128215864095 0  -0.2228691778882689 0.4475816456775313 0  -0.3013173181896281 0.3990086136401198 0  -0.3695044586103297 0.3368478218232785 0  -0.425108567864807 0.263216081438678 0  -0.4662361147021779 0.1806208330935767 0  -0.4914865498419509 0.09187475890828518 0  -0.9989008914857115 0.04687226246993986 0  -0.9989008914857115 -0.04687226246994006 0  -0.9901225145346509 -0.1402048722818856 0  -0.972642905324813 -0.2323053566349833 0  -0.9466156752904342 -0.3223643331611536 0  -0.912269552664897 -0.4095903603365061 0  -0.8699063724087903 -0.4932168926979072 0  -0.8198984236734248 -0.5725090172720717 0  -0.7626851781103823 -0.6467699120171984 0  -0.6987694277788414 -0.7153469695201277 0  -0.6287128665908849 -0.777637532133752 0  -0.5531311541252 -0.8330941881540912 0  -0.4726885051885656 -0.8812295824940283 0  -0.3880918526722498 -0.9216206995773374 0  -0.3000846350003406 -0.953912580814779 0  -0.2094402627661449 -0.977821443992945 0  -0.1169553219720827 -0.9931371771625541 0  -0.02344257360326047 -0.9997251851098159 0  0.07027618894529231 -0.9975275721840101 0  0.1633773618185306 -0.9865636510865464 0  0.2550427685616762 -0.9669297731502506 0  0.3444668502843321 -0.9387984816003867 0  0.4308637449409707 -0.9024169952385882 0  0.5134741935148417 -0.8581050358751444 0  0.5915722124135216 -0.8062520186022304 0  0.6644714734388218 -0.747313629600077 0  0.7315313352636686 -0.6818078215504381 0  0.7921624734111292 -0.6103102618497922 0  0.8458320592590973 -0.5334492736235703 0  0.8920684425573863 -0.4519003139999344 0  0.9304652963070865 -0.3663800381682465 0  0.9606851875768402 -0.2776400013875007 0  0.982462542875576 -0.1864600542916819 0  0.9956059820218981 -0.09364148953435038 0  1 0 0  0.9956059820218981 0.09364148953435077 0  0.9824625428755761 0.1864600542916812 0  0.9606851875768402 0.2776400013875006 0  0.9304652963070866 0.3663800381682462 0  0.8920684425573865 0.4519003139999338 0  0.8458320592590974 0.5334492736235703 0  0.7921624734111293 0.6103102618497921 0  0.731531335263669 0.6818078215504377 0  0.6644714734388217 0.7473136296000771 0  0.5915722124135224 0.8062520186022298 0  0.5134741935148421 0.8581050358751442 0  0.4308637449409705 0.9024169952385883 0  0.3444668502843328 0.9387984816003864 0  0.2550427685616765 0.9669297731502506 0  0.1633773618185302 0.9865636510865465 0  0.070276188945293 0.9975275721840101 0  -0.02344257360326044 0.9997251851098159 0  -0.1169553219720825 0.9931371771625542 0  -0.2094402627661442 0.9778214439929452 0  -0.3000846350003405 0.953912580814779 0  -0.3880918526722498 0.9216206995773374 0  -0.472688505188565 0.8812295824940286 0  -0.5531311541251994 0.8330941881540915 0  -0.6287128665908847 0.7776375321337522 0  -0.6987694277788417 0.7153469695201276 0  -0.7626851781103822 0.6467699120171985 0  -0.8198984236734244 0.5725090172720723 0  -0.8699063724087902 0.4932168926979075 0  -0.9122695526648968 0.4095903603365063 0  -0.9466156752904341 0.3223643331611538 0  -0.972642905324813 0.2323053566349835 0  -0.9901225145346509 0.1402048722818858 0  -1.1 1.1 0  -1.1 -1.1 0  1.1 -1.1 0  1.1 1.1 0  -1.1 0 0  0 -1.1 0  1.1 0 0  0 1.1 0  -1.1 -0.55 0  -1.1 0.55 0  0.55 -1.1 0  -0.55 -1.1 0  1.1 0.55 0  1.1 -0.55 0  -0.55 1.1 0  0.55 1.1 0  -1.1 -0.275 0  -1.1 0.275 0  0.275 -1.1 0  -0.275 -1.1 0  1.1 0.275 0  1.1 -0.275 0  -0.275 1.1 0  0.275 1.1 0  -1.1 -0.1375 0  -1.1 0.1375 0  0.1375 -1.1 0  -0.1375 -1.1 0  1.1 0.1375 0  1.1 -0.1375 0  -0.1375 1.1 0  0.1375 1.1 0  5.551115123125783e-17 0 0  1.1 0.8250000000000001 0  1.1 -0.8250000000000001 0  -0.8250000000000001 1.1 0  -0.8250000000000001 -1.1 0  -1.1 -0.8250000000000001 0  -1.1 0.8250000000000001 0  0.8250000000000001 -1.1 0  0.8250000000000001 1.1 0  -0.7452577130899811 0.07009504121197063 0  -0.7196145554063145 -0.2047479939110959 0  -0.6695870000800466 0.3334147091903505 0  -0.5967944603467291 -0.4506782564455942 0  -0.5037216596475655 0.5525563387374935 0  -0.3935412594153844 -0.6355909573281985 0  -0.2582020584797643 0.7036952909889966 0  -0.1224874465599003 -0.7396475322243659 0  1.804112415015879e-16 0.7472231737812758 0  0.1372852503520671 -0.7344112228591781 0  0.2911232306082124 0.6913445711599195 0  0.3932371367102588 -0.6350997822946517 0  0.5243503582032214 0.5367899979536359 0  0.5960259246062833 -0.4500978851946297 0  0.6847673336854203 0.3074465196515291 0  0.7183173129809632 -0.2043788966183693 0  0.7449256117842845 0.06204953239509305 0  -0.20035900300458 0.1513040956928792 0  -0.1321718625838789 -0.2134648875097201 0  0.1321718625838787 0.2134648875097203 0  0.1691454556057493 -0.1855437261303996 0  0.8703274951181128 0.8703274951181128 0  0.8537727593964153 -0.8740275859440739 0  0.2685886721097267 0.02488840569699225 0  -0.884556435066475 -0.8244315273435519 0  -0.8845564350664752 0.8244315273435516 0  -0.700580064659332 0.9548184980149617 0  -0.7005800646593325 -0.9548184980149612 0  -0.2980337216678105 -0.02761689135282146 0  -0.0549981651260624 0.2942141970944399 0  1.1 0.6875 0  0.9496207616733379 -0.7125799064602014 0  0.6875 -1.1 0  0.6875 1.1 0  -0.9625000000000001 1.1 0  -0.9625000000000001 -1.1 0  -1.1 -0.6875 0  -1.1 0.6875 0  2.081668171172169e-17 -0.3286953126985109 0  1.1 -0.9625000000000001 0  1.1 0.9625000000000001 0  -0.4285642961523128 0.7162057711357145 0  -0.2922226613044432 -0.776727428568197 0  0.174838450714037 0.8162746937229515 0  0.4617849541950493 0.6955138191869427 0  0.6845471893646073 0.4779975510912708 0  -0.8314184002977903 -0.07656163071707678 0  -0.8042940643706591 0.2324426440997535 0  -0.7469659197661445 -0.372041484500847 0  0.9435817685496533 0.6588731670051087 0  -0.6655841780668343 0.5027264603142332 0  -0.5616418371471765 -0.6162017817942277 0  -0.1378524463486731 0.8324299723484344 0  0.009440324071048431 -0.8383040935568646 0  0.6340216813999336 0.9549268270259341 0  0.6984391415215117 -0.9338903439767606 0  0.300664440564191 -0.7759990472259422 0  -1.1 -0.9625000000000001 0  -1.1 0.9625000000000001 0  0.9625000000000001 -1.1 0  0.9625000000000001 1.1 0  0.8255078551297768 0.1971637233367384 0  0.5931718080586599 -0.60724416156603 0  -0.964569560729961 0.61875 0  -0.9412184400777328 -0.675629987878325 0  0.01451466883707512 -0.1566382224930387 0  0.7445359644808093 -0.3707185760986815 0  -0.6496807851562796 -0.05960531119440617 0  -0.62683574040104 0.1785965340391935 0  -0.5834686517324597 -0.2905328669998186 0  -0.3401882519444225 0.5618906080620845 0  -0.5202412644899305 0.3927183715284568 0  -0.230469700834483 -0.6158690166206668 0  -0.439029499146694 -0.4815924191466816 0  0.1315973236401685 0.6465309847524076 0  -0.04929612731897073 0.1430325247211223 0  -0.1510628756856091 0.008271570971756887 0  0.2352800706632638 -0.6074862080268114 0  0.4388143211162365 -0.4814151137709591 0  0.5830621392046128 -0.290354993318151 0  0.8297887356081327 -0.08096868143845029 0  0.3167546236327295 -0.1265860605627834 0  0.2881011466407613 0.1826342016868564 0  -0.282843184752632 -0.2135932583519227 0  0.6472529330662994 -0.06273876808302634 0  -0.1187431011919023 0.6352194859156121 0  0.005630703506639467 -0.6493092616611125 0  0.3384713093165277 0.5466499340785792 0  0.5118553673379518 0.3865352308568081 0  0.6283965164136763 0.1635550987092959 0  -0.953685798793846 0.953685798793846 0  -0.89375 -0.9706384268651818 0  -0.6875 -1.1 0  0.4125 1.1 0  -0.6875 1.1 0  -0.4125 1.1 0  1.1 -0.4125 0  1.1 0.4125 0  0.4125 -1.1 0  -1.1 -0.4125 0  -1.1 0.4125 0  -0.4125 -1.1 0  1.1 -0.6875 0  0.1394115791193248 -0.04277964460399492 0  -0.3393513283955167 0.1110600808589604 0  -0.1930047892342392 0.3117134374691744 0  0.07927492778061024 0.3481510469172536 0  -0.1324701263156022 -0.3472242494295533 0  0.1439189409798292 -0.3272419854446572 0  0.7177822238787621 -0.5012045196611741 0  0.4845413164728957 -0.7297881373406302 0  0.9613904516514835 -0.9613904516514835 0  0.1835716722752551 -0.8570478058500863 0  0.02055237236693077 0.8764705026293684 0  -0.4210725768174081 -0.7622904223554584 0  -0.5511921771358804 0.6734406073486252 0  -0.6740102264683963 -0.5535712372257735 0  0.1021660343973917 0.08439258971470157 0  -0.7641327511364048 0.4203531262950583 0  -0.8282932755708275 -0.2728623792913848 0  -0.9854957873544363 0.7452945109297571 0  0.9722945504877303 -0.5512686332562167 0  -0.8708679406104808 0.04525295152524858 0  -0.3364219313405007 0.8047457289663124 0  -0.1870734116895495 -0.8510277858141307 0  0.8301367040255592 -0.2719899423920239 0  0.3741394004917264 0.7881775306901468 0  -0.8270615207685887 0.938295111785177 0  -0.7558474866591318 0.8308882058467112 0  0.6370644222528364 0.5962644341027006 0  0.7792401357821636 0.3928441213091871 0  0.8701243835998034 0.07
[...]
<PointData  Vectors="f_84"> 
<DataArray  type="Float64"  Name="f_84"  NumberOfComponents="3" format="ascii">2.0065510858120983e-01 3.3595016338534206e-02 0.0000000000000000e+00  3.0083836282534776e-02 6.1344279316603009e-02 0.0000000000000000e+00  -3.3687345632583314e-03 2.1003428262650812e-02 0.0000000000000000e+00  -9.6242656389704501e-02 -7.1294109707294273e-02 0.0000000000000000e+00  -1.1431001897120847e-01 -2.8543005471692168e-01 0.0000000000000000e+00  4.1202646476778587e-01 -4.2216277454970436e-01 0.0000000000000000e+00  5.4296450950577624e-01 -1.5568619681400495e-01 0.0000000000000000e+00  5.0778962556563356e-01 8.4238533320781309e-03 0.0000000000000000e+00  3.7818850251584940e-01 1.0979043346946263e-01 0.0000000000000000e+00  4.0694970151829618e-01 2.4177717807633389e-02 0.0000000000000000e+00  2.4776148984925311e-01 1.7124003843782151e-01 0.0000000000000000e+00  2.8235655375919005e-01 9.7777973681417649e-02 0.0000000000000000e+00  2.4867268205107709e-01 1.0886768445188105e-01 0.0000000000000000e+00  2.4232183712446775e-01 9.0235741628742594e-02 0.0000000000000000e+00  2.9518589768792353e-01 4.4884136712626123e-02 0.0000000000000000e+00  2.6282698653981629e-01 3.8739413601336627e-02 0.0000000000000000e+00  2.3867809312295551e-01 3.6591382403531755e-02 0.0000000000000000e+00  1.9188318239673971e-01 3.5530180669492491e-02 0.0000000000000000e+00  1.7085625010938535e-01 9.1836644887020574e-03 0.0000000000000000e+00  7.8560662525515537e-02 -1.7954609847795115e-02 0.0000000000000000e+00  3.5634006190024603e-02 -1.0162851691548887e-01 0.0000000000000000e+00  1.5568735193028227e-01 -3.0060778788702863e-01 0.0000000000000000e+00  3.2474714478436922e-01 -3.8417375693541794e-01 0.0000000000000000e+00  5.2959827064005449e-01 -1.8070524350742934e-01 0.0000000000000000e+00  4.6249617098692514e-01 2.1465716959804960e-02 0.0000000000000000e+00  3.9626519128991095e-01 7.6010911633188571e-02 0.0000000000000000e+00  3.5031998837748590e-01 9.4443559789134615e-02 0.0000000000000000e+00  2.3912357822810684e-01 1.6576356719803489e-01 0.0000000000000000e+00  2.8844787951445872e-01 9.5569961350690055e-02 0.0000000000000000e+00  2.7727862791110353e-01 7.6646393166447668e-02 0.0000000000000000e+00  2.7004588321032696e-01 8.3658295198127786e-02 0.0000000000000000e+00  2.3940279182850649e-01 6.6171653509239883e-02 0.0000000000000000e+00  3.4961244095562821e-01 -3.4934114182623346e-03 0.0000000000000000e+00  2.4484140609025778e-01 2.5256447273490835e-02 0.0000000000000000e+00  -2.9164450307719827e-02 5.4834894215854163e-02 0.0000000000000000e+00  -3.3842150130621695e-02 3.1259856061051826e-02 0.0000000000000000e+00  -3.6767609169863928e-02 4.3953858823126443e-04 0.0000000000000000e+00  -4.7973998321792097e-02 -3.3873132641205110e-02 0.0000000000000000e+00  -5.4858172994492069e-02 -6.9877025784793295e-02 0.0000000000000000e+00  -6.0759244486859043e-02 -1.0015625626107222e-01 0.0000000000000000e+00  -5.6205395071516069e-02 -1.3460787832426824e-01 0.0000000000000000e+00  -5.2338949230051668e-02 -1.6931338700371384e-01 0.0000000000000000e+00  -3.1897401104223636e-02 -2.0090664493157623e-01 0.0000000000000000e+00  5.3803724898399997e-03 -2.1773315623160791e-01 0.0000000000000000e+00  4.3213586045281423e-02 -2.2786742068741933e-01 0.0000000000000000e+00  8.2600993246514043e-02 -2.0891638899764961e-01 0.0000000000000000e+00  1.2219132110134823e-01 -1.6346582521924530e-01 0.0000000000000000e+00  1.4216851633664224e-01 -1.2150633655524808e-01 0.0000000000000000e+00  1.4509745092656062e-01 -7.1478546378927671e-02 0.0000000000000000e+00  1.3427243184680834e-01 -1.7478002959028911e-02 0.0000000000000000e+00  1.1871658185042605e-01 2.0184979844780754e-02 0.0000000000000000e+00  1.1125205287517945e-01 6.1798468916707608e-02 0.0000000000000000e+00  9.5456015163945002e-02 8.9930572579272464e-02 0.0000000000000000e+00  9.1180496530521737e-02 1.0007354613050322e-01 0.0000000000000000e+00  7.9143856553695963e-02 1.3459200258572521e-01 0.0000000000000000e+00  7.6108329167231759e-02 1.1432261087121835e-01 0.0000000000000000e+00  6.3356503307463785e-02 1.2361752422455843e-01 0.0000000000000000e+00  4.5831807269931239e-02 1.2381018943864415e-01 0.0000000000000000e+00  3.3575785977440188e-02 1.2659260278915449e-01 0.0000000000000000e+00  2.4079224863180693e-02 1.2914764500450721e-01 0.0000000000000000e+00  1.3916549068032783e-02 1.2668845994384711e-01 0.0000000000000000e+00  5.1181582937269068e-03 1.2658160262822593e-01 0.0000000000000000e+00  -3.1516163904167153e-03 1.2291126501031459e-01 0.0000000000000000e+00  -9.8844001420955330e-03 1.1765533875883616e-01 0.0000000000000000e+00  -1.5938930339857667e-02 1.0944102729153592e-01 0.0000000000000000e+00  -1.7016352255921147e-02 9.9735045323092755e-02 0.0000000000000000e+00  -2.2239369430284213e-02 8.5521831153790639e-02 0.0000000000000000e+00  -2.8204099125996189e-02 6.3381626801839369e-02 0.0000000000000000e+00  -2.8142757016375440e-02 4.1246915814581696e-02 0.0000000000000000e+00  -3.3928658219574720e-02 1.8855833464865416e-02 0.0000000000000000e+00  -4.3161995492087726e-02 -1.4137350595806347e-02 0.0000000000000000e+00  -4.5614548654104414e-02 -5.0323395524488126e-02 0.0000000000000000e+00  -6.3618598231778248e-02 -8.4416165465170195e-02 0.0000000000000000e+00  -6.3016986042136069e-02 -1.1816944913534391e-01 0.0000000000000000e+00  -5.6751258340977891e-02 -1.4671778562283797e-01 0.0000000000000000e+00  -4.1524868478499399e-02 -1.8392243944588196e-01 0.0000000000000000e+00  -1.2409000972019371e-02 -2.0585524591170315e-01 0.0000000000000000e+00  2.5112255264459551e-02 -2.2398436373552355e-01 0.0000000000000000e+00  6.1252050380293743e-02 -2.2729063234164515e-01 0.0000000000000000e+00  1.0656390658664015e-01 -1.8771061372859699e-01 0.0000000000000000e+00  1.3934511874773425e-01 -1.4649160916413542e-01 0.0000000000000000e+00  1.5071445070250519e-01 -1.0565731577187919e-01 0.0000000000000000e+00  1.2785162015873064e-01 -5.9043592472501884e-02 0.0000000000000000e+00  1.1848259588553224e-01 -4.1915679273221646e-03 0.0000000000000000e+00  1.1550532341471094e-01 5.1183818976191182e-02 0.0000000000000000e+00  1.0337401399320224e-01 5.3574235559852398e-02 0.0000000000000000e+00  6.1462355309473332e-02 9.1457532852279061e-02 0.0000000000000000e+00  9.5888469818782324e-02 1.3283528817003579e-01 0.0000000000000000e+00  9.0638233461869680e-02 1.3585770511336667e-01 0.0000000000000000e+00  7.4176139120386148e-02 1.2549791987690295e-01 0.0000000000000000e+00  5.9694443333252231e-02 1.2497615493312252e-01 0.0000000000000000e+00  4.6126105970396278e-02 1.2705839350314632e-01 0.0000000000000000e+00  3.1549313392999448e-02 1.2425474784720590e-01 0.0000000000000000e+00  2.0576099206037396e-02 1.2465589607713747e-01 0.0000000000000000e+00  1.0231892400100940e-02 1.2693036179456066e-01 0.0000000000000000e+00  1.2169805264031124e-03 1.2516563147967433e-01 0.0000000000000000e+00  -5.3300028871804093e-03 1.1947404576213755e-01 0.0000000000000000e+00  -1.2256004770875252e-02 1.1287219785718995e-01 0.0000000000000000e+00  -1.6290781400812419e-02 1.0408391503980009e-01 0.0000000000000000e+00  -1.7813058027242035e-02 9.3025344475508767e-02 0.0000000000000000e+00  -2.2503663712157455e-02 7.7708698965923084e-02 0.0000000000000000e+00  2.6276400968106562e-02 3.0457548937242885e-02 0.0000000000000000e+00  2.6276400968106562e-02 3.0457548937242885e-02 0.0000000000000000e+00  9.3446524194770175e-03 5.2297818313515113e-02 0.0000000000000000e+00  9.3446524194770175e-03 5.2297818313515113e-02 0.0000000000000000e+00  -5.7632106093588207e-03 4.0000283502647192e-02 0.0000000000000000e+00  9.3575558805904971e-02 -3.6755146320397412e-03 0.0000000000000000e+00  -6.7578516662613374e-03 4.0751961951817531e-02 0.0000000000000000e+00  9.3575558805904971e-02 -3.6755146320397412e-03 0.0000000000000000e+00  -4.2983288848186261e-03 -1.2772626958169578e-01 0.0000000000000000e+00  -2.7184637268724132e-04 1.1148799015931836e-01 0.0000000000000000e+00  4.8645021174428239e-02 4.1040297592542824e-02 0.0000000000000000e+00  4.5376815613743189e-02 -4.7870775274804725e-02 0.0000000000000000e+00  -3.9706946757178509e-03 -1.2570963040376243e-01 0.0000000000000000e+00  -3.1488484637516154e-05 1.1230648837794376e-01 0.0000000000000000e+00  4.5376815613743189e-02 -4.7870775274804725e-02 0.0000000000000000e+00  4.8645021174428239e-02 4.1040297592542824e-02 0.0000000000000000e+00  -1.0560013931712074e-02 -4.6149678609580816e-02 0.0000000000000000e+00  -3.5011107524375415e-03 9.2310013154929371e-02 0.0000000000000000e+00  8.5689719385537488e-02 -2.6763307953964342e-03 0.0000000000000000e+00  9.3761659353036111e-02 -3.6764658384394681e-02 0.0000000000000000e+00  -1.0496026988110965e-02 -4.8126006646383238e-02 0.0000000000000000e+00  -4.2093877402187710e-03 9.5722571220782093e-02 0.0000000000000000e+00  9.3761659353036111e-02 -3.6764658384394681e-02 0.0000000000000000e+00  8.5689719385537488e-02 -2.6763307953964342e-03 0.0000000000000000e+00  -7.5175912769910895e-03 -1.6972349823835854e-03 0.0000000000000000e+00  -4.0184074621505668e-03 7.2829986597232027e-02 0.0000000000000000e+00  9.6179648779593965e-02 -1.7583975633444857e-02 0.0000000000000000e+00  8.3446886379681687e-02 -3.4433099963907016e-03 0.0000000000000000e+00  -7.4695604501286211e-03 3.4453952082076845e-04 0.0000000000000000e+00  -5.4794176001665808e-03 7.3042860934985465e-02 0.0000000000000000e+00  8.3446886379681687e-02 -3.4433099963907016e-03 0.0000000000000000e+00  9.6179648779593965e-02 -1.7583975633444857e-02 0.0000000000000000e+00  5.8784039219017659e-01 -1.7686813718933536e-01 0.0000000000000000e+00  1.7029974100432474e-04 -1.4910738651361266e-01 0.0000000000000000e+00  2.5616933059514546e-03 1.0225506560506060e-01 0.0000000000000000e+00  2.5664583657017362e-02 5.6013448779998039e-02 0.0000000000000000e+00  2.5664583657017362e-02 5.6013448779998039e-02 0.0000000000000000e+00  5.1200261847085711e-04 -1.4933459213706224e-01 0.0000000000000000e+00  7.6677463776223822e-04 1.0535157622960095e-01 0.0000000000000000e+00  4.8580352916223556e-02 -1.9383280427162395e-02 0.0000000000000000e+00  4.8580352916223556e-02 -1.9383280427162395e-02 0.0000000000000000e+00  -1.0277212472471937e-01 1.2054355871651858e-01 0.0000000000000000e+00  -1.7214098252445489e-01 3.6223213167262531e-04 0.0000000000000000e+00  -4.6987138704147870e-02 1.7577766356437974e-01 0.0000000000000000e+00  -1.1000658800765317e-01 -2.2361268075504492e-01 0.0000000000000000e+00  1.5996912846169244e-02 1.9652903717840511e-01 0.0000000000000000e+00  1.4220057606467690e-01 -2.2339063021066805e-01 0.0000000000000000e+00  9.8187663578657894e-02 1.9575854977169022e-01 0.0000000000000000e+00  2.4426673565040088e-01 5.4555568500247995e-02 0.0000000000000000e+00  2.0516608345840154e-01 1.3395888802832115e-01 0.0000000000000000e+00  1.3602541723884906e-01 1.7297037134112003e-01 0.0000000000000000e+00  2.1685209615309231e-01 -1.2895304205034336e-01 0.0000000000000000e+00  5.3282657117018704e-02 1.9801478439191150e-01 0.0000000000000000e+00  -1.1183527557859093e-02 -2.7464454003400218e-01 0.0000000000000000e+00  -1.7184727312244956e-02 1.8703510917276098e-01 0.0000000000000000e+00  -1.7421807963152919e-01 -7.3011919965890446e-02 0.0000000000000000e+00  -8.0463579324851001e-02 1.4925082354959623e-01 0.0000000000000000e+00  -1.3562806623435875e-01 8.2976514693966830e-02 0.0000000000000000e+00  5.8702592554739175e-01 -1.7531344414671385e-01 0.0000000000000000e+00  5.8336680550218112e-01 -1.8119294885328197e-01 0.0000000000000000e+00  5.8222599937935915e-01 -1.8167640779164582e-01 0.0000000000000000e+00  5.8479261369788638e-01 -1.7304640796549323e-01 0.0000000000000000e+00  1.3978846917311499e-02 -1.5969499855179353e-01 0.0000000000000000e+00  1.9432516030595235e-02 1.0979918425287723e-01 0.0000000000000000e+00  5.8792695048339583e-01 -1.7614361352382962e-01 0.0000000000000000e+00  8.8916882379226955e-03 -1.6563605424345260e-01 0.0000000000000000e+00  1.2793274973838954e-02 1.0657867132337802e-01 0.0000000000000000e+00  3.7344268317426335e-02 9.9604444984266988e-02 0.0000000000000000e+00  5.9718982814803180e-02 -2.0961850320521577e-01 0.0000000000000000e+00  5.8789368393057972e-01 -1.7751597081478757e-01 0.0000000000000000e+00  5.8332349574648612e-01 -1.7363537556666817e-01 0.0000000000000000e+00  -2.2056320783070456e-03 -1.4500842673480160e-01 0.0000000000000000e+00  7.3846513474879315e-03 1.1243173790463619e-01 0.0000000000000000e+00  4.5134063807798573e-02 3.9132003187858228e-03 0.0000000000000000e+00  4.5134063807798573e-02 3.9132003187858228e-03 0.0000000000000000e+00  5.0851235403055074e-03 2.8605772934434281e-02 0.0000000000000000e+00  5.0851235403055074e-03 2.8605772934434281e-02 0.0000000000000000e+00  -1.5854706554722020e-03 -1.4527625344483341e-01 0.0000000000000000e+00  7.7041901291565438e-04 1.1017805073033685e-01 0.0000000000000000e+00  5.8279707984783646e-01 -1.7458536502977418e-01 0.0000000000000000e+00  3.9493060408374381e-03 8.0793079621595820e-02 0.0000000000000000e+00  -1.0313051605415968e-02 -1.5573919266382300e-01 0.0000000000000000e+00  5.7345366063487571e-02 1.6886272113835665e-01 0.0000000000000000e+00  1.9738460708708713e-01 -8.9903043176769115e-02 0.0000000000000000e+00  2.0125750352238631e-01 -6.4240645208836454e-03 0.0000000000000000e+00  1.0566875572622696e-01 -2.1348050926189271e-01 0.0000000000000000e+00  -9.6828024367018400e-02 -1.8153547031349615e-01 0.0000000000000000e+00  -1.0232179055125568e-01 4.7919589503336253e-02 0.0000000000000000e+00  -5.1197710684143215e-02 1.2197432999119834e-01 0.0000000000000000e+00  -1.2339810589256953e-01 -1.0026707771874879e-01 0.0000000000000000e+00  -1.6054584317644224e-02 -1.5278290434199343e-01 0.0000000000000000e+00  -7.2280858559851469e-03 1.5513347695967819e-01 0.0000000000000000e+00  1.4664166943494133e-02 -2.4193877229425040e-01 0.0000000000000000e+00  1.2809700707161764e-01 1.3692724878607360e-01 0.0000000000000000e+00  1.6534656532101935e-01 1.0057163762272049e-01 0.0000000000000000e+00  4.6965693042055529e-02 -1.8987174048332608e-01 0.0000000000000000e+00  3.0237647310849287e-02 1.0952679480267442e-01 0.0000000000000000e+00  8.3533310298776711e-02 1.6255553106759693e-01 0.0000000000000000e+00  -2.7154726836032411e-04 -1.5578448839059772e-01 0.0000000000000000e+00  -1.3503880215603211e-03 1.0172943334345395e-01 0.0000000000000000e+00  1.8616610278614408e-02 2.5495928026966898e-02 0.0000000000000000e+00  1.8616610278614408e-02 2.5495928026966898e-02 0.0000000000000000e+00  -1.0799451721255901e-01 -1.2013757183156899e-02 0.0000000000000000e+00  1.6072356619897234e-02 1.6529826275214143e-01 0.0000000000000000e+00  1.4457375973573039e-03 1.1415096794564157e-01 0.0000000000000000e+00  -1.3351246122281973e-02 -1.5419933279259992e-01 0.0000000000000000e+00  5.8625710184537749e-01 -1.7618747813950483e-01 0.0000000000000000e+00  -3.6380776768765957e-02 1.4525037891526840e-01 0.0000000000000000e+00  -1.8955126082466248e-01 1.3186392081966508e-01 0.0000000000000000e+00  -9.6993808905945708e-02 1.9236514306170821e-01 0.0000000000000000e+00  -2.1668797765325520e-01 -6.4396367644365141e-02 0.0000000000000000e+00  5.0495458350886570e-02 2.4059121525970137e-01 0.0000000000000000e+00  -6.1926914835641290e-03 2.1534604834305729e-01 0.0000000000000000e+00  2.9546859691143706e-01 -8.7093523309348664e-02 0.0000000000000000e+00  2.0960214241274429e-02 -3.3016210399150075e-01 0.0000000000000000e+00  2.9889573254763158e-01 7.6917104052441468e-02 0.0000000000000000e+00  5.8743818416702198e-01 -1.7680838504132856e-01 0.0000000000000000e+00  5.8801840041536613e-01 -1.7697324112698726e-01 0.0000000000000000e+00  1.0732614519849051e-01 2.2270387729198465e-01 0.0000000000000000e+00  1.0463305092845595e-02 2.2942304410167752e-01 0.0000000000000000e+00  -3.8703729141208627e-02 1.9680907052680688e-01 0.0000000000000000e+00  -8.2295664756947801e-02 9.0854358744359862e-02 0.0000000000000000e+00  6.0502983622782969e-01 -1.8476795214811065e-01 0.0000000000000000e+00  5.8347427803336605e-01 -1.8613116903337265e-01 0.0000000000000000e+00  5.9824849485977805e-01 -1.8918532852311440e-01 0.0000000000000000e+00  -1.1798078077187188e-01 1.5398252708503871e-01 0.0000000000000000e+00  1.6217760947132681e-01 2.2003436762159628e-01 0.0000000000000000e+00  2.1032044491781596e-01 1.9177898584541472e-01 0.0000000000000000e+00  2.1643632336099217e-01 -2.8697225280575717e-01 0.0000000000000000e+00  -1.6697378368726126e-01 -2.3507691528312361e-01 0.0000000000000000e+00  -2.0593605764094919e-01 6.8443302585924196e-02 0.0000000000000000e+00  5.6582791153374648e-03 9.5605471826047533e-02 0.0000000000000000e+00  1.7254476912608088e-02 -1.7797409521677951e-01 0.0000000000000000e+00  2.9402364241574646e-02 6.4507999011938683e-02 0.0000000000000000e+00  5.7878760916228005e-02 -2.6647851327405749e-02 0.0000000000000000e+00  2.9402364241574646e-02 6.4507999011938683e-02 0.0000000000000000e+00  7.0689256650605090e-02 1.4027988677219730e-02 0.0000000000000000e+00  -1.1510146725702587e-03 1.0755003106305937e-01 0.0000000000000000e+00  -3.5085195429845600e-03 -9.0644605516336338e-02 0.0000000000000000e+00  5.7878760916228005e-02 -2.6647851327405749e-02 0.0000000000000000e+00  -4.2946049932366418e-03 -8.9835294049461598e-02 0.0000000000000000e+00  -1.2829022122214982e-03 1.0638320416141640e-01 0.0000000000000000e+00  7.0689256650605090e-02 1.4027988677219730e-02 0.0000000000000000e+00  1.2779857199004816e-03 1.0982867485298517e-01 0.0000000000000000e+00  5.8793477494420632e-01 -1.7639043181122213e-01 0.0000000000000000e+00  5.6552642599657954e-01 -1.5793880407074359e-01 0.0000000000000000e+00  5.8470319343247845e-01 -1.7206536939126799e-01 0.0000000000000000e+00  5.7325643712760765e-01 -1.6774734484155002e-01 0.0000000000000000e+00  5.7941264131446157e-01 -1.7337439886843012e-01 0.0000000000000000e+00  5.8450413655913203e-01 -1.7508465761372327e-01 0.0000000000000000e+00  -9.2432748808246035e-03 1.4897232434595370e-01 0.0000000000000000e+00  4.7482626376340840e-02 1.5691409542912796e-01 0.0000000000000000e+00  2.1984067246403883e-02 9.0800178563944289e-02 0.0000000000000000e+00  1.1128491262036848e-01 1.3593602385888720e-01 0.0000000000000000e+00  1.5711657691657291e-01 7.5902075403242994e-02 0.0000000000000000e+00  1.3323865366409446e-01 -1.7690391768185368e-01 0.0000000000000000e+00  3.0248944584171319e-02 1.5781351425586387e-01 0.0000000000000000e+00  -5.2199722883917631e-02 -2.1546682421658228e-01 0.0000000000000000e+00  5.8771070952444970e-01 -1.7819502418254046e-01 0.0000000000000000e+00  -2.1640636458913051e-02 1.4133930352003043e-01 0.0000000000000000e+00  -1.1044429884873230e-01 -4.8267645245840894e-02 0.0000000000000000e+00  4.8654520198111945e-03 1.0971715392266872e-01 0.0000000000000000e+00  -9.8167282056368715e-04 1.1498974896296070e-01 0.0000000000000000e+00  -7.1139683562126271e-02 7.5747087529999438e-02 0.0000000000000000e+00  7.5444210555590224e-02 1.5171650857682079e-01 0.0000000000000000e+00  1.7756959083559726e-01 -1.3578341332642161e-02 0.0000000000000000e+00  -4.1115959754228194e-02 1.1995201806523728e-01 0.0000000000000000e+00  1.5569746212485899e-01 -1.5286499103235998e-01 0.0000000000000000e+00  2.0122274650936543e-02 9.5560802786923887e-02 0.0000000000000000e+00  2.3101374852326838e-02 1.1011873530990716e-01 0.0000000000000000e+00  -3.4761119974725502e-02 -2.2666439292057702e-01 0.0000000000000000e+00  -1.1623023331469524e-01 -1.1744185431373121e-01 0.0000000000000000e+00  -8.3818119983377501e-02 3.3681368361122246e-02 0.0000000000000000e+00  9.2286801797835834e-03 -1.5308433879176941e-01 0.0000000000000000e+00  -2.2929142495224594e-01 -3.6678160684672660e-02 0.0000000000000000e+00  5.5155370051845065e-01 -1.4874520662494833e-01 0.0000000000000000e+00  5.5415587700903990e-01 -1.9551949359594684e-01 0.0000000000000000e+00  5.4082006484494116e-01 -1.3889799467385608e-01 0.0000000000000000e+00  3.4907049362688194e-02 -1.8249824185233265e-01 0.0000000000000000e+00  4.9037922581975125e-02 -1.6990416445127876e-01 0.0000000000000000e+00  2.4