<?xml version="1.0"?>
<VTKFile type="UnstructuredGrid"  version="0.1"  >
<UnstructuredGrid>
<Piece  NumberOfPoints="2577" NumberOfCells="4963">
<Points>
<DataArray  type="Float64"  NumberOfComponents="3"  format="ascii">-0.4987820251299121 0.03487823687206276 0  -0.4987820251299122 -0.03487823687206242 0  -0.4890738003669028 -0.1039558454088795 0  -0.4698463103929542 -0.1710100716628343 0  -0.4414737964294634 -0.2347357813929454 0  -0.4045084971874738 -0.2938926261462365 0  -0.3596699001693255 -0.3473291852294987 0  -0.307830737662829 -0.3940053768033611 0  -0.2500000000000002 -0.4330127018922192 0  -0.1873032967079561 -0.4635919272833937 0  -0.1209609477998339 -0.4851478631379982 0  -0.05226423163382668 -0.4972609476841367 0  0.01744974835125064 -0.4996954135095479 0  0.08682408883346499 -0.4924038765061041 0  0.1545084971874736 -0.4755282581475768 0  0.2191855733945387 -0.4493970231495835 0  0.2795964517353731 -0.414518786277521 0  0.3345653031794289 -0.3715724127386973 0  0.3830222215594889 -0.3213938048432698 0  0.4240240480782127 -0.2649596321166029 0  0.4567727288213005 -0.2033683215379001 0  0.4806308479691593 -0.1378186779084999 0  0.4951340343707851 -0.06958655048003294 0  0.5 0 0  0.4951340343707852 0.06958655048003272 0  0.4806308479691594 0.1378186779084996 0  0.4567727288213004 0.2033683215379001 0  0.424024048078213 0.2649596321166025 0  0.383022221559489 0.3213938048432696 0  0.3345653031794291 0.3715724127386971 0  0.2795964517353734 0.4145187862775209 0  0.2191855733945387 0.4493970231495835 0  0.1545084971874737 0.4755282581475768 0  0.08682408883346521 0.492403876506104 0  0.01744974835125054 0.4996954135095479 0  -0.05226423163382667 0.4972609476841367 0  -0.1209609477998339 0.4851478631379982 0  -0.187303296707956 0.4635919272833937 0  -0.2499999999999999 0.4330127018922194 0  -0.3078307376628291 0.394005376803361 0  -0.3596699001693256 0.3473291852294986 0  -0.4045084971874737 0.2938926261462366 0  -0.4414737964294634 0.2347357813929455 0  -0.4698463103929542 0.1710100716628344 0  -0.4890738003669028 0.1039558454088797 0  1 0 0  0.9975640502598242 0.0697564737441253 0  0.9902680687415704 0.1391731009600654 0  0.9781476007338057 0.2079116908177593 0  0.9612616959383189 0.2756373558169992 0  0.9396926207859084 0.3420201433256687 0  0.9135454576426009 0.4067366430758002 0  0.882947592858927 0.4694715627858908 0  0.848048096156426 0.5299192642332049 0  0.8090169943749475 0.5877852522924731 0  0.766044443118978 0.6427876096865393 0  0.7193398003386512 0.6946583704589973 0  0.6691306063588582 0.7431448254773941 0  0.6156614753256583 0.788010753606722 0  0.5591929034707468 0.8290375725550417 0  0.5000000000000001 0.8660254037844386 0  0.4383711467890775 0.898794046299167 0  0.374606593415912 0.9271838545667874 0  0.3090169943749475 0.9510565162951535 0  0.2419218955996679 0.9702957262759965 0  0.1736481776669304 0.984807753012208 0  0.1045284632676535 0.9945218953682733 0  0.03489949670250108 0.9993908270190958 0  -0.03489949670250073 0.9993908270190958 0  -0.1045284632676533 0.9945218953682734 0  -0.1736481776669303 0.984807753012208 0  -0.2419218955996678 0.9702957262759965 0  -0.3090169943749473 0.9510565162951536 0  -0.3746065934159121 0.9271838545667874 0  -0.4383711467890775 0.8987940462991669 0  -0.4999999999999998 0.8660254037844387 0  -0.5591929034707467 0.8290375725550417 0  -0.6156614753256583 0.788010753606722 0  -0.6691306063588582 0.7431448254773942 0  -0.7193398003386512 0.6946583704589971 0  -0.7660444431189779 0.6427876096865395 0  -0.8090169943749473 0.5877852522924732 0  -0.848048096156426 0.5299192642332049 0  -0.8829475928589268 0.4694715627858911 0  -0.9135454576426008 0.4067366430758004 0  -0.9396926207859083 0.3420201433256689 0  -0.9612616959383187 0.2756373558169997 0  -0.9781476007338057 0.2079116908177593 0  -0.9902680687415703 0.1391731009600657 0  -0.9975640502598242 0.06975647374412552 0  -1 1.224646799147353e-16 0  -0.9975640502598243 -0.06975647374412483 0  -0.9902680687415703 -0.1391731009600655 0  -0.9781476007338057 -0.2079116908177591 0  -0.9612616959383189 -0.275637355816999 0  -0.9396926207859084 -0.3420201433256687 0  -0.9135454576426011 -0.4067366430757998 0  -0.8829475928589269 -0.4694715627858909 0  -0.8480480961564261 -0.5299192642332048 0  -0.8090169943749476 -0.587785252292473 0  -0.766044443118978 -0.6427876096865393 0  -0.7193398003386511 -0.6946583704589974 0  -0.6691306063588585 -0.743144825477394 0  -0.6156614753256581 -0.7880107536067221 0  -0.5591929034707472 -0.8290375725550414 0  -0.5000000000000004 -0.8660254037844384 0  -0.4383711467890777 -0.8987940462991668 0  -0.3746065934159123 -0.9271838545667873 0  -0.3090169943749476 -0.9510565162951535 0  -0.2419218955996678 -0.9702957262759965 0  -0.1736481776669303 -0.984807753012208 0  -0.1045284632676534 -0.9945218953682734 0  -0.03489949670250165 -0.9993908270190957 0  0.03489949670250128 -0.9993908270190958 0  0.104528463267653 -0.9945218953682734 0  0.17364817766693 -0.9848077530122081 0  0.2419218955996675 -0.9702957262759966 0  0.3090169943749472 -0.9510565162951536 0  0.374606593415912 -0.9271838545667874 0  0.4383711467890774 -0.898794046299167 0  0.5000000000000001 -0.8660254037844386 0  0.5591929034707462 -0.8290375725550421 0  0.6156614753256585 -0.7880107536067218 0  0.6691306063588578 -0.7431448254773946 0  0.7193398003386509 -0.6946583704589976 0  0.7660444431189778 -0.6427876096865396 0  0.8090169943749473 -0.5877852522924734 0  0.8480480961564254 -0.5299192642332058 0  0.8829475928589269 -0.4694715627858908 0  0.913545457642601 -0.4067366430758002 0  0.9396926207859084 -0.3420201433256686 0  0.9612616959383187 -0.2756373558169998 0  0.9781476007338056 -0.2079116908177599 0  0.9902680687415703 -0.1391731009600659 0  0.9975640502598243 -0.06975647374412476 0  -1.1 1.1 0  -1.1 -1.1 0  1.1 -1.1 0  1.1 1.1 0  1.1 0 0  0 1.1 0  -1.1 0 0  0 -1.1 0  1.1 0.55 0  1.1 -0.55 0  -0.55 1.1 0  0.55 1.1 0  -1.1 -0.55 0  -1.1 0.55 0  0.55 -1.1 0  -0.55 -1.1 0  1.1 0.275 0  1.1 -0.275 0  -0.275 1.1 0  0.275 1.1 0  -1.1 -0.275 0  -1.1 0.275 0  0.275 -1.1 0  -0.275 -1.1 0  1.1 0.1375 0  1.1 -0.1375 0  -0.1375 1.1 0  0.1375 1.1 0  -1.1 -0.1375 0  -1.1 0.1375 0  0.1375 -1.1 0  -0.1375 -1.1 0  5.551115123125783e-17 -1.665334536937735e-16 0  -0.8250000000000001 -1.1 0  -0.8250000000000001 1.1 0  0.8250000000000001 1.1 0  0.8250000000000001 -1.1 0  -1.1 -0.8250000000000001 0  1.1 0.8250000000000001 0  1.1 -0.8250000000000001 0  -1.1 0.8250000000000001 0  0.5913683108017449 -0.4620275612009603 0  0.649914963473963 0.3752285791120578 0  0.4606240494606415 0.5895718976940387 0  0.181000513545807 -0.72595340868972 0  -0.5213113466312544 0.5398337023596473 0  -0.748177477268642 3.677613769070831e-16 0  -0.6834941358692682 -0.3043111955291684 0  -0.4823845629070328 -0.574883535856444 0  0.7463460753897364 -0.07844413349737717 0  0.1810005135458073 0.7259534086897199 0  -0.2311995552845864 0.7115590651016113 0  -0.6834941358692682 0.3043111955291685 0  -0.2566714648155866 -0.7051990537991649 0  -0.1676911387756446 0.1862398773501902 0  0.09388033613439234 0.2323619857605368 0  0.25 0.01748170298587768 0  -0.1919787613936808 -0.1610893078793085 0  0.1253052372601464 -0.2170350373890467 0  0.4100151197949826 -0.6310439038757515 0  0.7462612140915066 0.1586227177749866 0  -0.04055708751545835 -0.7729701257972625 0  -0.8714499137803688 0.8714499137803687 0  0.8475624786996654 0.8776766395249775 0  -0.8475624786996656 -0.8776766395249775 0  0.8475624786996647 -0.8776766395249778 0  0.6549247837405074 -0.2646067885805835 0  -0.02452403903941524 0.7022765934528045 0  -0.6971570973421019 0.9595544245098317 0  0.9457715379788133 0.7171099473715343 0  -1.1 0.6875 0  -0.9457715379788133 -0.7171099473715342 0  0.945771537978813 -0.7171099473715348 0  -0.6875 -1.1 0  0.6875 1.1 0  0.6875 -1.1 0  -0.3021034145256841 0.04245786604388235 0  -0.05297525897811498 -0.3004376231321225 0  -0.6493495559083107 -0.4889583914999844 0  -0.4184043150681578 0.6969024203637967 0  1.1 -0.9625000000000001 0  1.1 0.9625000000000001 0  -0.9625000000000001 -1.1 0  0.2887013349030826 -0.1535052227012283 0  -0.056778523551556 0.3220070083626767 0  0.2645279155006937 0.1921907804558624 0  -0.9625000000000001 1.1 0  0.6922516407240482 -0.9346405102034137 0  0.6809472320731365 0.9372434590203537 0  -0.6809472320731367 -0.9372434590203537 0  0.06398867824008851 0.8378070690880577 0  -0.1172078581063797 0.8339772447956406 0  -0.5066579812390133 -0.4168691543844079 0  -0.3616253213577449 0.5474571478967749 0  -0.8028623003113451 -0.1706536500486641 0  -0.6435813133346415 -0.1485334625034662 0  0.3598144769124489 0.7377290042694387 0  0.2791822551364582 0.5985953263881472 0  -0.6535024333571912 0.1389062302773976 0  -0.8110749424437763 0.1957563045411092 0  -0.6949649763371784 0.4687597954466224 0  0.6229628706227364 0.560918288156104 0  -0.9297411857248856 0.7099174590703911 0  0.9625000000000001 1.1 0  0.9625000000000001 -1.1 0  -1.1 -0.9625000000000001 0  -1.1 0.9625000000000001 0  0.7388223103480156 -0.4005571441608962 0  0.8083621931560332 -0.2626527982464245 0  -0.155403738656764 -0.009737379389236772 0  -0.03944258252365207 -0.1479345038122513 0  -0.1124826985140496 -0.6379210831042694 0  0.3343324134502086 -0.7721815783645656 0  0.6086499783436645 0.2271435919934762 0  0.6451580408601226 0.04511384499706936 0  0.5687769439189224 -0.6195906411664603 0  -0.4001602488812527 -0.7525919704505459 0  0.8457217097464697 0.0401248801850398 0  0.7889254854389035 0.307330107167108 0  0.4993777703025682 0.4330411172771549 0  -0.5409883622077387 0.3797819883575305 0  -0.1783153826881871 -0.8337981003274648 0  0.04893952783735875 -0.6491733978417491 0  0.09057598678368259 -0.8453775254020186 0  0.2396424741704135 -0.593135937339345 0  -0.3077981704318665 0.1923336432766373 0  -0.33157036934951 -0.1476246396327481 0  -0.1945783708747696 -0.3026864137415663 0  0.07931900866494118 -0.3509819116997642 0  -1.1 -0.6875 0  -1.1 -0.4125 0  1.1 0.4125 0  1.1 -0.4125 
[...]
<PointData  Vectors="f_86"> 
<DataArray  type="Float64"  Name="f_86"  NumberOfComponents="3" format="ascii">-2.3603731536023078e-03 -7.2305024229686543e-02 0.0000000000000000e+00  3.0161287264605471e-02 -1.6389765285740532e-01 0.0000000000000000e+00  -3.8886128098095746e-02 -2.5129909764406649e-01 0.0000000000000000e+00  -4.7038084180626757e-02 -2.9724069860310415e-01 0.0000000000000000e+00  -7.4450315019607471e-02 -3.7022721803640357e-01 0.0000000000000000e+00  1.5584512189043243e-01 -2.7891931477270621e-01 0.0000000000000000e+00  1.9190999340095241e-01 -2.5929597669885729e-01 0.0000000000000000e+00  2.6518529472729141e-01 -2.0583137462843679e-01 0.0000000000000000e+00  2.7313307641323881e-01 -1.8821851139552825e-01 0.0000000000000000e+00  3.2519090597233036e-01 -1.3731150409888829e-01 0.0000000000000000e+00  3.5270990061095481e-01 -8.4193839957253838e-02 0.0000000000000000e+00  3.7164347044659973e-01 -3.7549565105754787e-02 0.0000000000000000e+00  3.8823186383541175e-01 4.9648341768946710e-02 0.0000000000000000e+00  3.9193398457412165e-01 1.3449353828879843e-01 0.0000000000000000e+00  3.8391582296167281e-01 2.0555082398146526e-01 0.0000000000000000e+00  3.5548609343130483e-01 2.9749132445411142e-01 0.0000000000000000e+00  3.0029603237392533e-01 3.6473549972233860e-01 0.0000000000000000e+00  1.8315314365076299e-01 4.2964758838886491e-01 0.0000000000000000e+00  8.8075160030977651e-02 4.1330567250790262e-01 0.0000000000000000e+00  1.5541600268393529e-01 2.5162026038079410e-01 0.0000000000000000e+00  4.4747743290841843e-02 1.9024666425822492e-01 0.0000000000000000e+00  -1.3955305590595540e-01 1.2192774662502648e-01 0.0000000000000000e+00  -1.9880172298269580e-01 -3.7005247378834620e-03 0.0000000000000000e+00  -1.0726591641453459e-02 -1.2744361170228552e-01 0.0000000000000000e+00  1.3139609720205392e-02 -1.9874334698999702e-01 0.0000000000000000e+00  1.0010248110411227e-01 -2.3542013640036841e-01 0.0000000000000000e+00  7.3393771632268442e-02 -2.9601875268327071e-01 0.0000000000000000e+00  3.3599375992683728e-02 -3.4139783745614416e-01 0.0000000000000000e+00  1.9642880269002244e-01 -2.4998402279553492e-01 0.0000000000000000e+00  2.5451712443905100e-01 -2.2898196871061713e-01 0.0000000000000000e+00  2.7199024542457062e-01 -2.3980392613176890e-01 0.0000000000000000e+00  3.0060958353436940e-01 -1.6401789817451765e-01 0.0000000000000000e+00  3.3964385965371241e-01 -1.0654101473322881e-01 0.0000000000000000e+00  3.7530233127168749e-01 -5.0961410094120835e-02 0.0000000000000000e+00  4.0256125898917033e-01 1.6790739997230970e-02 0.0000000000000000e+00  4.1134342575553978e-01 8.5775786309491273e-02 0.0000000000000000e+00  3.8632639088370502e-01 1.8025195279104250e-01 0.0000000000000000e+00  3.4989583277802128e-01 2.6349495382441723e-01 0.0000000000000000e+00  3.2735027676568962e-01 3.0918818555898964e-01 0.0000000000000000e+00  3.1428368331860845e-01 3.0849460347755020e-01 0.0000000000000000e+00  3.2352080649802151e-01 2.7794599028199157e-01 0.0000000000000000e+00  1.7585174092974157e-01 3.0094580220249306e-01 0.0000000000000000e+00  1.0568731209927983e-01 2.5014605137001267e-01 0.0000000000000000e+00  1.8058042812769898e-01 1.0074032042987804e-01 0.0000000000000000e+00  -2.5746411109018059e-02 2.9372299840191362e-02 0.0000000000000000e+00  -4.8418983501605400e-01 2.8844005859605427e-02 0.0000000000000000e+00  -3.9983196805397331e-01 4.1334539144015576e-03 0.0000000000000000e+00  -3.1658769677854509e-01 5.2590840735062859e-03 0.0000000000000000e+00  -3.0134238527541157e-01 -7.9121285888062790e-03 0.0000000000000000e+00  -2.8660861741774435e-01 -2.3436865101443036e-02 0.0000000000000000e+00  -2.4510176741540171e-01 -3.0926385573957323e-02 0.0000000000000000e+00  -2.1432003978330696e-01 -5.1388582606502205e-02 0.0000000000000000e+00  -1.8761183074304644e-01 -6.6639304485463291e-02 0.0000000000000000e+00  -1.5606416098423082e-01 -7.6988240236787853e-02 0.0000000000000000e+00  -1.2305417728096701e-01 -8.8415700940839767e-02 0.0000000000000000e+00  -1.0172397993332713e-01 -9.6577684069440076e-02 0.0000000000000000e+00  -7.2968066525381223e-02 -9.3726987372179577e-02 0.0000000000000000e+00  -4.9781547820985608e-02 -1.0095891714939827e-01 0.0000000000000000e+00  -2.9077821403953100e-02 -1.0407381789726444e-01 0.0000000000000000e+00  -1.7575169552632979e-02 -1.0430693270011650e-01 0.0000000000000000e+00  1.3792571562169242e-03 -1.0257239581556134e-01 0.0000000000000000e+00  1.2717050158360119e-02 -1.0013260766386162e-01 0.0000000000000000e+00  2.0258732466987287e-02 -9.0730225946837592e-02 0.0000000000000000e+00  3.3246099471244350e-02 -7.7908472797944883e-02 0.0000000000000000e+00  4.6182267296916948e-02 -6.3805433459047295e-02 0.0000000000000000e+00  5.5211550172231540e-02 -6.2083964465045008e-02 0.0000000000000000e+00  5.3113190913292072e-02 -5.5555222498331294e-02 0.0000000000000000e+00  4.4281316278492487e-02 -3.0331034927877809e-02 0.0000000000000000e+00  4.9771562891667925e-02 -1.0648004149767817e-03 0.0000000000000000e+00  5.0496371708533883e-02 1.1693290735581950e-02 0.0000000000000000e+00  4.7789862778333025e-02 4.6042467224599475e-02 0.0000000000000000e+00  4.4575833561404446e-02 5.1071011901654945e-02 0.0000000000000000e+00  2.7971726606104405e-02 6.4277646271723887e-02 0.0000000000000000e+00  1.2852504629597085e-02 7.2447217479300288e-02 0.0000000000000000e+00  -8.1526161050496163e-03 8.9045110982527126e-02 0.0000000000000000e+00  -2.6894595205801630e-02 1.1376468635750170e-01 0.0000000000000000e+00  -5.4885332143251614e-02 1.3221389661319238e-01 0.0000000000000000e+00  -8.7940692401003676e-02 1.2986752388293263e-01 0.0000000000000000e+00  -1.2095899159280457e-01 1.0973931693136525e-01 0.0000000000000000e+00  -2.0003064698793113e-01 1.5066267134940287e-01 0.0000000000000000e+00  -2.1883157951873206e-01 1.2021205018332813e-01 0.0000000000000000e+00  -2.7114358973833053e-01 1.6978110522125883e-01 0.0000000000000000e+00  -3.4615830680682991e-01 2.1654613310582127e-01 0.0000000000000000e+00  -6.2917360668370159e-01 3.2803731206098985e-01 0.0000000000000000e+00  -5.3060354027879164e-01 2.2105993936237356e-01 0.0000000000000000e+00  -7.4562117787025706e-01 4.3089067564168138e-01 0.0000000000000000e+00  -7.7556873135032833e-01 1.5991828205901951e-01 0.0000000000000000e+00  -7.0492998829643749e-01 2.0039800673853470e-01 0.0000000000000000e+00  -3.9639107606183860e-01 6.6026020065288377e-02 0.0000000000000000e+00  -2.8209222353017138e-01 5.4413682830495344e-02 0.0000000000000000e+00  -3.9101475282484716e-01 5.1341075932227913e-02 0.0000000000000000e+00  -3.5355147363554373e-01 1.4091595632832809e-02 0.0000000000000000e+00  -3.4971172884256879e-01 9.9684913243117037e-03 0.0000000000000000e+00  -3.3266350094624531e-01 -1.6466826795931457e-02 0.0000000000000000e+00  -2.7454525577830119e-01 -1.6412397183520618e-02 0.0000000000000000e+00  -2.4076244599380756e-01 -3.7132867594827222e-02 0.0000000000000000e+00  -2.1307815328194951e-01 -5.2036599910555897e-02 0.0000000000000000e+00  -1.8402543412074862e-01 -6.5162281246716469e-02 0.0000000000000000e+00  -1.5642875236535178e-01 -7.3302026900504552e-02 0.0000000000000000e+00  -1.3123316216516884e-01 -8.6491533859752501e-02 0.0000000000000000e+00  -9.5819671967399378e-02 -9.3271823388952305e-02 0.0000000000000000e+00  -7.7288643710064109e-02 -1.0182445110776260e-01 0.0000000000000000e+00  -4.9388208476491252e-02 -9.6452965798753038e-02 0.0000000000000000e+00  -3.0659913526063728e-02 -1.0174681278350559e-01 0.0000000000000000e+00  -7.5874424953244826e-03 -1.0020604713333700e-01 0.0000000000000000e+00  7.5629920485531165e-03 -9.7619883862478357e-02 0.0000000000000000e+00  1.5186868013554662e-02 -9.5585802783398968e-02 0.0000000000000000e+00  2.8767743856841825e-02 -9.0498898629826602e-02 0.0000000000000000e+00  3.6389441239759811e-02 -8.2456165766075423e-02 0.0000000000000000e+00  4.5175553448373942e-02 -8.8246264024609666e-02 0.0000000000000000e+00  3.9279973201357100e-02 -6.3483186240277753e-02 0.0000000000000000e+00  5.0564542218053704e-02 -4.8678960707300808e-02 0.0000000000000000e+00  4.4569776041734198e-02 -2.3955946895055386e-02 0.0000000000000000e+00  5.4972465460109518e-02 6.6450546814882799e-04 0.0000000000000000e+00  4.2714077549178144e-02 1.0824855967383801e-02 0.0000000000000000e+00  3.9934996931557304e-02 3.4405158294603493e-02 0.0000000000000000e+00  3.2943867917185822e-02 5.7626538461199264e-02 0.0000000000000000e+00  2.1576647822878922e-02 6.7471237300152712e-02 0.0000000000000000e+00  1.2091487144088189e-02 8.4425231632337158e-02 0.0000000000000000e+00  2.3615105278804597e-03 9.4560533578628522e-02 0.0000000000000000e+00  -1.8899330203834781e-02 1.0859427992784237e-01 0.0000000000000000e+00  -5.4942185496639928e-02 1.2190878915934955e-01 0.0000000000000000e+00  -9.2696890005902616e-02 1.3179246053482133e-01 0.0000000000000000e+00  -1.0822670010257589e-01 1.1724290473156361e-01 0.0000000000000000e+00  -1.5841018785512087e-01 1.2573465159775343e-01 0.0000000000000000e+00  -2.9763890854959335e-01 1.8501458639628676e-01 0.0000000000000000e+00  -3.2403161429875699e-01 1.9125621179509775e-01 0.0000000000000000e+00  -3.7070383559140518e-01 1.9227914082251849e-01 0.0000000000000000e+00  -6.5451896911371110e-01 2.2214444377068676e-01 0.0000000000000000e+00  -5.8278806224496682e-01 3.0401328944833683e-01 0.0000000000000000e+00  -3.8483930019631335e-01 1.4035154960715746e-01 0.0000000000000000e+00  -4.5036886673709131e-01 1.6822438669142020e-01 0.0000000000000000e+00  -4.1673172127457681e-01 1.1714832895823668e-01 0.0000000000000000e+00  -3.6563062974627075e-01 6.2284953832237061e-02 0.0000000000000000e+00  -5.1324261206184141e-01 7.4652920907437678e-02 0.0000000000000000e+00  -1.9465512740635692e-02 1.2382472959448696e-03 0.0000000000000000e+00  -1.9465512740635692e-02 1.2382472959448696e-03 0.0000000000000000e+00  -1.6561756553694445e-02 1.9891781951212159e-03 0.0000000000000000e+00  -1.6561756553694445e-02 1.9891781951212159e-03 0.0000000000000000e+00  -1.7383814464530428e-01 2.5587524937098708e-03 0.0000000000000000e+00  2.2408257658793378e-02 -6.7413558579609229e-03 0.0000000000000000e+00  -1.9378384572233653e-01 1.4971270781331191e-03 0.0000000000000000e+00  2.2408257658793378e-02 -6.7413558579609229e-03 0.0000000000000000e+00  -1.5285645789706306e-01 4.8726357523357089e-04 0.0000000000000000e+00  -6.6019154577211123e-02 2.4424180312835123e-04 0.0000000000000000e+00  1.0920940836702092e-02 4.5811691789226592e-03 0.0000000000000000e+00  2.9456835514937431e-04 1.5206494806883904e-02 0.0000000000000000e+00  -1.5252596487646908e-01 6.6415131930960597e-04 0.0000000000000000e+00  -6.5489698744520222e-02 -1.9225002531641166e-04 0.0000000000000000e+00  2.9456835514937431e-04 1.5206494806883904e-02 0.0000000000000000e+00  1.0920940836702092e-02 4.5811691789226592e-03 0.0000000000000000e+00  -2.0745892801720620e-01 1.7845697483292594e-03 0.0000000000000000e+00  -6.7157192057763548e-02 -6.5717589445013110e-03 0.0000000000000000e+00  1.6229390747243694e-02 2.1542367242348055e-02 0.0000000000000000e+00  9.3942916799055216e-03 -2.7015217840756306e-02 0.0000000000000000e+00  -2.1071755432924388e-01 9.9694240199972258e-04 0.0000000000000000e+00  -7.4802934410254332e-02 -1.9545797738333534e-03 0.0000000000000000e+00  9.3942916799055216e-03 -2.7015217840756306e-02 0.0000000000000000e+00  1.6229390747243694e-02 2.1542367242348055e-02 0.0000000000000000e+00  -2.1057950579014817e-01 -4.4300935679729711e-03 0.0000000000000000e+00  -1.5645547879720073e-01 5.9962491628091572e-03 0.0000000000000000e+00  2.8709812804042865e-02 -7.3678709749495442e-03 0.0000000000000000e+00  2.3409377264724258e-02 3.1601697235084894e-04 0.0000000000000000e+00  -2.0855760561857531e-01 -2.8168269513731206e-03 0.0000000000000000e+00  -1.5321721013649500e-01 5.4126625527620960e-03 0.0000000000000000e+00  2.3409377264724258e-02 3.1601697235084894e-04 0.0000000000000000e+00  2.8709812804042865e-02 -7.3678709749495442e-03 0.0000000000000000e+00  4.5437175474191388e-01 -2.8107620168660405e-02 0.0000000000000000e+00  -5.2964771661082322e-02 -1.1933579673046431e-02 0.0000000000000000e+00  -5.2964771661082322e-02 -1.1933579673046431e-02 0.0000000000000000e+00  -1.5330035791105935e-02 -2.0633288968842634e-02 0.0000000000000000e+00  -1.5330035791105935e-02 -2.0633288968842634e-02 0.0000000000000000e+00  -7.5739795292428955e-02 -1.4075352058870596e-04 0.0000000000000000e+00  -8.2561115466059695e-02 6.7505499790154327e-03 0.0000000000000000e+00  -4.6455031233769414e-02 5.2993538226829475e-04 0.0000000000000000e+00  -4.7644632470021410e-02 -6.6502001462653803e-06 0.0000000000000000e+00  -9.8917795763687116e-02 2.9718675454320514e-01 0.0000000000000000e+00  -1.6957646528346154e-01 -1.9889161595545501e-01 0.0000000000000000e+00  -4.6762186793756497e-03 -1.8260309545210979e-01 0.0000000000000000e+00  1.2490715305794868e-01 1.0768241949110487e-01 0.0000000000000000e+00  -3.7725453595866883e-02 2.9108439960106680e-01 0.0000000000000000e+00  -3.6272482296774511e-01 -8.3315345151321246e-02 0.0000000000000000e+00  -2.2470323113054921e-01 -1.9049462919701143e-01 0.0000000000000000e+00  -1.8242910053732891e-02 -1.8832198081136339e-01 0.0000000000000000e+00  -3.6379430614576819e-01 -3.1782427157471718e-02 0.0000000000000000e+00  1.1457546753427746e-01 -8.1536164946766854e-02 0.0000000000000000e+00  1.1222989254455271e-01 1.4233282170567635e-01 0.0000000000000000e+00  -2.4049033052814148e-01 1.9355034128038257e-01 0.0000000000000000e+00  9.0930045450846306e-02 -1.1278031551630281e-01 0.0000000000000000e+00  4.7463438554257625e-01 -1.1518669314082830e-02 0.0000000000000000e+00  4.2854357973122176e-01 -2.3827531567480336e-02 0.0000000000000000e+00  4.6674950986229474e-01 -5.3718362438117520e-02 0.0000000000000000e+00  4.3613375936883519e-01 -4.6017224852972355e-02 0.0000000000000000e+00  4.6299740839175962e-01 -4.1061100174522363e-03 0.0000000000000000e+00  4.4574699345188470e-02 2.4702463182336865e-01 0.0000000000000000e+00  -3.0727442457747350e-01 -1.4643464639887263e-01 0.0000000000000000e+00  1.2437888622687809e-01 -1.9732269513918845e-02 0.0000000000000000e+00  -4.2569620605109118e-02 2.3574046835007727e-02 0.0000000000000000e+00  -6.0994225675668624e-02 -5.9487786093127819e-02 0.0000000000000000e+00  -6.1238708850572643e-02 -6.0153060338314857e-02 0.0000000000000000e+00  -4.2624225176534317e-02 2.7792940247348727e-02 0.0000000000000000e+00  -2.7782914339116721e-01 1.9697748197310905e-01 0.0000000000000000e+00  1.6994989500911223e-01 2.0494699364517172e-02 0.0000000000000000e+00  -2.5375472100176787e-02 4.2028456574988181e-02 0.0000000000000000e+00  -1.0248083980161776e-01 -4.2891675869344538e-02 0.0000000000000000e+00  -5.8392610701167420e-02 -2.3094220995816899e-03 0.0000000000000000e+00  -1.0551529624224354e-01 -4.2413014051159222e-02 0.0000000000000000e+00  -5.9237557058035427e-02 1.4035052352075498e-02 0.0000000000000000e+00  -1.0046044492294133e-02 -2.6334012705787949e-02 0.0000000000000000e+00  -5.8466127722791384e-03 1.7387150391883134e-02 0.0000000000000000e+00  -5.8466127722791384e-03 1.7387150391883134e-02 0.0000000000000000e+00  4.8298202063577655e-01 -5.3690027489732589e-02 0.0000000000000000e+00  4.2500965063618679e-01 -9.8048522491870349e-03 0.0000000000000000e+00  -1.0941041768675704e-01 -1.6366849465711314e-01 0.0000000000000000e+00  2.9279345160333314e-02 1.9347683812907837e-01 0.0000000000000000e+00  -3.1799979693317430e-02 1.4480106303800882e-03 0.0000000000000000e+00  -4.7355004301785415e-02 -5.7702471274487189e-04 0.0000000000000000e+00  -2.0956329003610843e-02 9.3470448347631428e-03 0.0000000000000000e+00  4.9996237089118217e-01 -2.1410201047976727e-02 0.0000000000000000e+00  4.3840167117482370e-01 1.2045330215427034e-02 0.0000000000000000e+00  4.2564147682199382e-01 -6.2661336076093976e-02 0.0000000000000000e+00  -2.0956329003610843e-02 9.3470448347631428e-03 0.0000000000000000e+00  -2.6173937713650092e-02 4.3766560790362292e-02 0.0000000000000000e+00  -2.8254348447653125e-02 -8.6577447615682479e-02 0.0000000000000000e+00  -2.3793711271205120e-02 -8.0937974036557364e-02 0.0000000000000000e+00  9.4861893523324914e-02 -2.3044699822214191e-02 0.0000000000000000e+00  9.4078566597147570e-02 4.1471419252704825e-02 0.0000000000000000e+00  -9.7828394642755404e-02 -2.7248295913891640e-01 0.0000000000000000e+00  8.7808119585266062e-02 3.1330966584101327e-01 0.0000000000000000e+00  -3.1048561759677795e-01 -1.2348273721916511e-01 0.0000000000000000e+00  -3.3901851162406788e-01 -2.0588013138433683e-01 0.0000000000000000e+00  4.8765979269580928e-02 -1.1416064120589574e-01 0.0000000000000000e+00  1.0920052494630594e-01 -1.7767284508260014e-01 0.0000000000000000e+00  -3.5718708536903671e-01 6.1478094398114073e-02 0.0000000000000000e+00  -3.4200076695600828e-01 2.3744037914441792e-02 0.0000000000000000e+00  -1.5058161080499902e-01 2.6509512064898455e-01 0.0000000000000000e+00  -7.1929285095799531e-02 -1.4977599724528559e-01 0.0000000000000000e+00  -6.2537572859737545e-02 1.4596311802991110e-02 0.0000000000000000e+00  -2.2365906812492453e-02 1.1428996701903283e-03 0.0000000000000000e+00  -2.2365906812492453e-02 1.1428996701903283e-03 0.0000000000000000e+00  -4.2590539402096714e-02 -6.9733327160410939e-04 0.0000000000000000e+00  -3.4743203897476961e-02 3.3996818584020467e-04 0.0000000000000000e+00  -2.0543846995897763e-01 2.2768968931384453e-01 0.0000000000000000e+00  -3.2053474315600061e-01 7.9467082895555902e-02 0.0000000000000000e+00  4.5852724336571782e-01 -3.6375328970394707e-02 0.0000000000000000e+00  4.4683449245518037e-01 -2.4267582096314935e-02 0.0000000000000000e+00  1.7999034114758711e-01 -7.7291373358362975e-02 0.0000000000000000e+00  5.8301038285067677e-02 1.4254222605844111e-01 0.0000000000000000e+00  -2.7108731839783246e-01 -2.4603800821755176e-01 0.0000000000000000e+00  -3.9024461717572417e-01 -1.3476922996050561e-01 0.0000000000000000e+00  -5.1611874407024229e-02 2.4652558932114235e-01 0.0000000000000000e+00  3.4985228099433253e-02 -1.1550181044480806e-01 0.0000000000000000e+00  -3.7297092371518870e-01 -8.0885679417883022e-02 0.0000000000000000e+00  -2.3264971838442577e-01 -1.3148234502631381e-01 0.0000000000000000e+00  -8.1869819374068342e-02 -2.6486047516991973e-01 0.0000000000000000e+00  -1.2503809113475892e-01 3.4237790909910820e-01 0.0000000000000000e+00  7.7562305134549564e-02 -6.0768363542473343e-02 0.0000000000000000e+00  2.0603018005131596e-01 4.4618234583691588e-02 0.0000000000000000e+00  9.0401974129021859e-02 3.0482551379965906e-02 0.0000000000000000e+00  1.6881142150911496e-01 2.3329636914973795e-01 0.0000000000000000e+00  5.0733750767515884e-01 -1.4011609612163609e-02 0.0000000000000000e+00  4.4268586735404947e-01 -7.7996305305744210e-02 0.0000000000000000e+00  4.0966527922423307e-01 -3.5561844783182632e-02 0.0000000000000000e+00  4.4294684072140927e-01 2.0187987773187165e-02 0.0000000000000000e+00  -1.1470303087145292e-01 -2.7480098211088997e-04 0.0000000000000000e+00  -1.8967784818768985e-01 9.3027023123627836e-04 0.0000000000000000e+00  -1.8920624637322445e-01 8.3787829096070964e-04 0.0000000000000000e+00  -7.3038068974026538e-02 1.9679022914341907e-03 0.0000000000000000e+00  -1.0046044492294133e-02 -2.6334012705787949e-02 0.0000000000000000e+00  1.0749045813906563e-03 2.4517813352866839e-02 0.0000000000000000e+00  9.8117437396062421e-03 -8.5399258263726303e-03 0.0000000000000000e+00  -7.2392101790968541e-02 1.4168241177871914e-03 0.0000000000000000e+00  9.8117437396062421e-03 -8.5399258263726303e-03 0.0000000000000000e+00  1.0749045813906563e-03 2.4517813352866839e-02 0.0000000000000000e+00  -1.1853807084006597e-01 2.3629315970456577e-03 0.0000000000000000e+00  -5.8243243539050950e-02 1.2857884955052191e-04 0.0000000000000000e+00  3.5144730376965353e-03 3.6749567057886784e-01 0.0000000000000000e+00  1.0836010520024060e-01 -2.0973314411560862e-01 0.0000000000000000e+00  -3.3556945623564587e-02 1.4537953583881446e-02 0.0000000000000000e+00  -6.2011939876749356e-02 -2.8261785678212317e-02 0.0000000000000000e+