<?xml version="1.0"?>
<VTKFile type="UnstructuredGrid"  version="0.1"  >
<UnstructuredGrid>
<Piece  NumberOfPoints="3915" NumberOfCells="7208">
<Points>
<DataArray  type="Float64"  NumberOfComponents="3"  format="ascii">-0.4989726963751682 0.03203510999035662 0  -0.4989726963751682 -0.0320351099903565 0  -0.4907795784955327 -0.09557931435068615 0  -0.4745278735053343 -0.1575541090118103 0  -0.4504844339512096 -0.216941869558779 0  -0.4190440524459204 -0.2727674506052742 0  -0.3807229791845673 -0.3241141976538941 0  -0.3361504451306585 -0.3701389985376576 0  -0.286058330061085 -0.4100861272984778 0  -0.2312691451204177 -0.4432996531865 0  -0.1726825272106537 -0.4692342110248803 0  -0.1112604669781573 -0.4874639560909118 0  -0.04801151295384078 -0.4976895564745991 0  0.01602578878582743 -0.4997431081003439 0  0.0797999475166892 -0.4935908917072251 0  0.142263793315516 -0.4793339265183304 0  0.2023916715611969 -0.4572063115079062 0  0.2591962841552622 -0.4275713815026732 0  0.3117449009293667 -0.390915741234015 0  0.3591746750488635 -0.3478412753017435 0  0.400706810933978 -0.2990552652456085 0  0.4356593520616947 -0.2453587760019689 0  0.4634583786730108 -0.1876335024396873 0  0.4836474315195147 -0.1268272919547538 0  0.495895006911623 -0.06393858084225332 0  0.5 0 0  0.4958950069116231 0.063938580842253 0  0.4836474315195147 0.1268272919547537 0  0.4634583786730109 0.187633502439687 0  0.4356593520616947 0.2453587760019689 0  0.4007068109339783 0.299055265245608 0  0.3591746750488638 0.3478412753017432 0  0.3117449009293668 0.3909157412340149 0  0.2591962841552626 0.427571381502673 0  0.2023916715611969 0.4572063115079062 0  0.1422637933155162 0.4793339265183303 0  0.07979994751668977 0.493590891707225 0  0.01602578878582767 0.4997431081003439 0  -0.04801151295384088 0.4976895564745991 0  -0.1112604669781572 0.4874639560909118 0  -0.1726825272106537 0.4692342110248802 0  -0.2312691451204175 0.4432996531865001 0  -0.2860583300610849 0.4100861272984779 0  -0.3361504451306584 0.3701389985376577 0  -0.3807229791845671 0.3241141976538944 0  -0.4190440524459203 0.2727674506052744 0  -0.4504844339512095 0.2169418695587791 0  -0.4745278735053343 0.1575541090118106 0  -0.4907795784955327 0.09557931435068627 0  -0.9994965423831851 0.0317279334980681 0  -0.9994965423831851 -0.03172793349806786 0  -0.9954719225730846 -0.09505604330418263 0  -0.9874388886763943 -0.1580013959733501 0  -0.975429786885407 -0.2203105327865406 0  -0.9594929736144975 -0.2817325568414294 0  -0.9396926207859084 -0.3420201433256687 0  -0.9161084574320697 -0.4009305354066134 0  -0.8888354486549237 -0.4582265217274099 0  -0.857983413234977 -0.5136773915734064 0  -0.8236765814298328 -0.5670598638627706 0  -0.7860530947427877 -0.6181589862206049 0  -0.7452644496757548 -0.6667690005162915 0  -0.7014748877063216 -0.7126941713788626 0  -0.6548607339452849 -0.7557495743542585 0  -0.6056096871376666 -0.7957618405308321 0  -0.5539200638661105 -0.8325698546347713 0  -0.5000000000000004 -0.8660254037844384 0  -0.444066612605774 -0.895993774291336 0  -0.3863451256931287 -0.9223542941045814 0  -0.3270679633174219 -0.9450008187146683 0  -0.2664738136900355 -0.9638421585599419 0  -0.2048066680651905 -0.9788024462147787 0  -0.1423148382732852 -0.9898214418809327 0  -0.07924995685678879 -0.9968547759519423 0  -0.01586596383480761 -0.9998741276738751 0  0.04758191582374238 -0.998867339183008 0  0.1108381999010109 -0.9938384644612541 0  0.17364817766693 -0.9848077530122081 0  0.2357589355094266 -0.9718115683235419 0  0.2969203753282749 -0.9549022414440739 0  0.3568862215918717 -0.9341478602651068 0  0.415415013001886 -0.9096319953545186 0  0.4722710747726821 -0.8814533634475823 0  0.5272254676105024 -0.8497254299495144 0  0.5800569095711979 -0.8145759520503358 0  0.6305526670845221 -0.7761464642917572 0  0.6785094115571316 -0.7345917086575338 0  0.7237340381050695 -0.6900790114821127 0  0.7660444431189772 -0.6427876096865403 0  0.8052702575310587 -0.5929079290546402 0  0.8412535328311812 -0.5406408174555974 0  0.8738493770697849 -0.4861967361004688 0  0.9029265382866211 -0.4297949120891719 0  0.9283679330160723 -0.3716624556603281 0  0.9500711177409454 -0.3120334456984871 0  0.9679487013963562 -0.2511479871810794 0  0.9819286972627066 -0.1892512443604106 0  0.9919548128307952 -0.1265924535737499 0  0.9979866764718843 -0.06342391965656541 0  1 0 0  0.9979866764718844 0.06342391965656451 0  0.9919548128307953 0.1265924535737493 0  0.9819286972627067 0.1892512443604102 0  0.9679487013963562 0.2511479871810792 0  0.9500711177409454 0.3120334456984871 0  0.9283679330160726 0.3716624556603275 0  0.9029265382866213 0.4297949120891716 0  0.8738493770697849 0.4861967361004687 0  0.8412535328311812 0.5406408174555976 0  0.8052702575310586 0.5929079290546404 0  0.7660444431189781 0.6427876096865393 0  0.7237340381050702 0.6900790114821119 0  0.6785094115571322 0.7345917086575333 0  0.6305526670845225 0.7761464642917568 0  0.5800569095711983 0.8145759520503356 0  0.5272254676105024 0.8497254299495144 0  0.4722710747726827 0.8814533634475821 0  0.4154150130018864 0.9096319953545183 0  0.3568862215918719 0.9341478602651067 0  0.2969203753282749 0.9549022414440739 0  0.2357589355094273 0.9718115683235417 0  0.1736481776669306 0.984807753012208 0  0.1108381999010111 0.9938384644612541 0  0.0475819158237424 0.998867339183008 0  -0.01586596383480803 0.9998741276738751 0  -0.07924995685678854 0.9968547759519424 0  -0.142314838273285 0.9898214418809328 0  -0.2048066680651905 0.9788024462147787 0  -0.266473813690035 0.963842158559942 0  -0.3270679633174214 0.9450008187146686 0  -0.3863451256931285 0.9223542941045815 0  -0.4440666126057741 0.8959937742913359 0  -0.4999999999999998 0.8660254037844387 0  -0.5539200638661103 0.8325698546347714 0  -0.6056096871376665 0.7957618405308323 0  -0.654860733945285 0.7557495743542583 0  -0.7014748877063214 0.7126941713788627 0  -0.7452644496757547 0.6667690005162917 0  -0.7860530947427873 0.6181589862206055 0  -0.8236765814298327 0.5670598638627709 0  -0.8579834132349768 0.5136773915734066 0  -0.8888354486549234 0.4582265217274105 0  -0.9161084574320695 0.400930535406614 0  -0.9396926207859082 0.3420201433256693 0  -0.9594929736144974 0.2817325568414297 0  -0.975429786885407 0.2203105327865408 0  -0.9874388886763943 0.1580013959733499 0  -0.9954719225730846 0.09505604330418288 0  -1 1 0  -1 -1 0  1 -1 0  1 1 0  1 0.5076469359690824 0  0 1 0  -1 0 0  0 -1 0  1 -0.5076469359690896 0  1 0.2538234679845412 0  0.01585797599446719 0.9993707334284415 0  -0.5 1 0  0.5 1 0  -0.9994965423831851 1.214306433183765e-16 0  -1 0.5 0  -1 -0.5 0  0.01585797599446739 -0.9993707334284415 0  -0.5 -1 0  0.5 -1 0  1 -0.2538234679845448 0  1 0.1269117339922706 0  1 0.3807352019768118 0  -3.993920170421508e-06 0.9996224305511583 0  -0.25 1 0  0.25 1 0  -1 0.25 0  -1 -0.25 0  -3.993920170110993e-06 -0.9996224305511583 0  -0.25 -1 0  0.25 -1 0  1 -0.1269117339922724 0  1 -0.3807352019768172 0  1 0.0634558669961353 0  1 0.1903676009884059 0  1 0.3172793349806765 0  -0.125 1 0  -0.375 1 0  0.125 1 0  0.375 1 0  -1 0.125 0  -1 0.375 0  -1 -0.125 0  -1 -0.375 0  -0.125 -1 0  -0.375 -1 0  0.125 -1 0  0.375 -1 0  1 -0.0634558669961362 0  1 -0.1903676009884086 0  1 -0.317279334980681 0  -0.1107823975650368 0.9933381089164376 0  -0.0625 1 0  -0.1875 1 0  -0.3125 1 0  0.1422431887839709 0.9893231087367311 0  0.0625 1 0  0.1875 1 0  0.3125 1 0  -0.9914554056247394 0.1265287196387664 0  -1 0.0625 0  -1 0.1875 0  -1 0.3125 0  -0.9914554056247394 -0.1265287196387664 0  -1 -0.0625 0  -1 -0.1875 0  -1 -0.3125 0  -0.110782397565037 -0.9933381089164375 0  -0.0625 -1 0  -0.1875 -1 0  -0.3125 -1 0  0.1422431887839704 -0.9893231087367311 0  0.0625 -1 0  0.1875 -1 0  0.3125 -1 0  -0.1265486179191609 0.9915797753986852 0  -0.04755796034579828 0.9983644518129087 0  -0.03125 1 0  -0.09375 1 0  -0.1735607531692377 0.9843119440478558 0  -0.21875 1 0  -0.15625 1 0  0.126540694342491 0.9915807865989926 0  0.07921005786237675 0.9963529018221311 0  0.03125 1 0  0.09375 1 0  0.204703556588179 0.9783096606678748 0  0.15625 1 0  -0.9934636640989121 0.1107923814714746 0  -0.9974842324781348 0.06339198840112549 0  -1 0.03125 0  -1 0.09375 0  -0.9814343377809007 0.1891559643799454 0  -1 0.21875 0  -1 0.15625 0  -0.9934636640989121 -0.1107923814714745 0  -0.9974842324781348 -0.06339198840112524 0  -1 -0.03125 0  -1 -0.09375 0  -0.9814343377809007 -0.1891559643799453 0  -1 -0.21875 0  -1 -0.15625 0  -0.1265486179191611 -0.991579775398685 0  -0.0475579603457982 -0.9983644518129087 0  -0.03125 -1 0  -0.09375 -1 0  -0.1735607531692379 -0.9843119440478557 0  -0.21875 -1 0  -0.15625 -1 0  0.1265406943424906 -0.9915807865989926 0  0.07921005786237661 -0.9963529018221311 0  0.03125 -1 0  0.09375 -1 0  0.2047035565881783 -0.9783096606678749 0  0.15625 -1 0  -0.06340395860129341 0.9976096138824255 0  -0.03171196209030316 0.9991192897433918 0  -0.015625 1 0  -0.046875 1 0  -0.09501617721091266 0.9950964424341899 0  -0.109375 1 0  -0.078125 1 0  -0.1579377957212614 0.9870666929643943 0  -0.140625 1 0  0.06339598684305958 0.9976101205025696 0  0.03171994590910479 0.9991190363057247 0  0.015625 1 0  0.046875 1 0  0.09502412888169393 0.9950956831416926 0  0.109375 1 0  0.078125 1 0  0.21875 1 0  0.1579456832254507 0.9870654308744695 0  0.140625 1 0  0.171875 1 0  -0.9984903874306599 0.0475599609495968 0  -0.9994965423831851 0.01586396674903411 0  -1 0.046875 0  -0.9964780775256097 0.07922401585265418 0  -1 0.109375 0  -1 0.078125 0  -0.9984903874306599 -0.04755996094959655 0  -0.9994965423831851 -0.01586396674903387 0  -1 -0.046875 0  -0.9964780775256097 -0.07922401585265393 0  -1 -0.109375 0  -1 -0.078125 0  -0.0634039586012935 -0.9976096138824255 0  -0.0317119620903029 -0.9991192897433918 0  -0.015625 -1 0  -0.046875 -1 0  -0.09501617721091291 -0.9950964424341899 0  -0.109375 -1 0  -0.078125 -1 0  -0.1579377957212615 -0.9870666929643942 0  -0.140625 -1 0  0.0633959868430595 -0.9976101205025696 0  0.03171994590910489 -0.999119
[...]
<PointData  Vectors="f_86"> 
<DataArray  type="Float64"  Name="f_86"  NumberOfComponents="3" format="ascii">-1.3305986094993297e-01 -8.3537201503470937e-02 0.0000000000000000e+00  -1.3546744895108623e-01 -1.7307795655358019e-01 0.0000000000000000e+00  6.2974498386676098e-02 -2.2488639655856110e-01 0.0000000000000000e+00  2.0218992026529492e-02 -2.6800146659158786e-01 0.0000000000000000e+00  -4.6078522159615547e-02 -3.2195703871432996e-01 0.0000000000000000e+00  5.0562372053351984e-02 -3.3921001338078988e-01 0.0000000000000000e+00  1.5498341389307335e-01 -2.7842128601336757e-01 0.0000000000000000e+00  1.5658897143455167e-01 -2.8232822664476415e-01 0.0000000000000000e+00  2.1193705312455116e-01 -2.5145811013869213e-01 0.0000000000000000e+00  2.7157882916872567e-01 -1.8684520501296575e-01 0.0000000000000000e+00  3.1123490661278369e-01 -1.3585256728203715e-01 0.0000000000000000e+00  3.3322558517237905e-01 -1.0062043859911769e-01 0.0000000000000000e+00  3.8479014458904820e-01 -3.1810744450091605e-03 0.0000000000000000e+00  3.9976744705728967e-01 3.3547805697514338e-02 0.0000000000000000e+00  4.0138521726816700e-01 1.1347898242702875e-01 0.0000000000000000e+00  3.8885066624430709e-01 1.7695077471388371e-01 0.0000000000000000e+00  3.5588859457654037e-01 2.5722505561294745e-01 0.0000000000000000e+00  2.9482623236195910e-01 3.2519340872927960e-01 0.0000000000000000e+00  3.3802713748306384e-01 2.6310964835491041e-01 0.0000000000000000e+00  1.7890048808094552e-01 3.8687735124036227e-01 0.0000000000000000e+00  8.3384225858963556e-03 4.1025594021713502e-01 0.0000000000000000e+00  3.2736693206049050e-01 1.1859266182120075e-01 0.0000000000000000e+00  1.7097669212203678e-01 1.1040318566170768e-01 0.0000000000000000e+00  -2.3419101870101374e-02 5.9574567165183008e-02 0.0000000000000000e+00  -1.5300757330325909e-01 -3.0537065411745213e-02 0.0000000000000000e+00  -9.9535729157067349e-02 -1.3299357962532746e-01 0.0000000000000000e+00  -2.6312151008915025e-01 -2.3491595545978047e-01 0.0000000000000000e+00  1.0991543603669643e-01 -2.2919230609986121e-01 0.0000000000000000e+00  7.8172755459010382e-02 -2.6632842240153476e-01 0.0000000000000000e+00  4.3236026979797997e-02 -3.1463970077507813e-01 0.0000000000000000e+00  1.8584027805947004e-01 -2.5116098622729655e-01 0.0000000000000000e+00  1.2674073749776707e-01 -3.2925047244936406e-01 0.0000000000000000e+00  2.0452704820257137e-01 -2.5117151358482848e-01 0.0000000000000000e+00  2.6880678502495486e-01 -1.8335758139849487e-01 0.0000000000000000e+00  3.0799961750962018e-01 -1.8034335801440440e-01 0.0000000000000000e+00  3.2584551214606566e-01 -1.2029549874433486e-01 0.0000000000000000e+00  3.5157288353101473e-01 -5.3008318629741397e-02 0.0000000000000000e+00  3.7173866447878989e-01 6.7585781204790663e-03 0.0000000000000000e+00  3.9211384563213192e-01 8.6994547689177582e-02 0.0000000000000000e+00  3.6757537020894515e-01 1.8979341941544442e-01 0.0000000000000000e+00  3.9443847278011424e-01 1.7834352434744832e-01 0.0000000000000000e+00  3.3724226740471402e-01 2.9166261798891374e-01 0.0000000000000000e+00  3.1195768796732037e-01 3.2092467079611581e-01 0.0000000000000000e+00  2.2960579284344212e-01 3.7740918066810009e-01 0.0000000000000000e+00  3.0331012818232239e-01 2.5324293386613644e-01 0.0000000000000000e+00  2.5831178826177903e-01 2.0894334248335708e-01 0.0000000000000000e+00  5.8712489629590789e-02 2.0341665480299578e-01 0.0000000000000000e+00  1.3370796626157580e-01 6.7554087710763683e-02 0.0000000000000000e+00  -1.3399576100418298e-01 2.8168781103029759e-02 0.0000000000000000e+00  -5.5633102633204345e-01 1.6251957687893098e-02 0.0000000000000000e+00  -5.6296205158230705e-01 -1.0889271217075914e-02 0.0000000000000000e+00  -4.4792765675575696e-01 -1.6095883507632282e-02 0.0000000000000000e+00  -4.2214141720269072e-01 -2.2570202738954558e-02 0.0000000000000000e+00  -3.5915118371204113e-01 -1.9033624710568110e-02 0.0000000000000000e+00  -3.1917225662765503e-01 -1.8608091242096544e-02 0.0000000000000000e+00  -2.9979966677592401e-01 -1.5738538381568825e-02 0.0000000000000000e+00  -2.5900133486623811e-01 -2.6912698928841867e-02 0.0000000000000000e+00  -2.3017080190042991e-01 -4.1939872712932688e-02 0.0000000000000000e+00  -1.9530478405684304e-01 -5.4088857255369056e-02 0.0000000000000000e+00  -1.6169736760573827e-01 -6.8258386718444752e-02 0.0000000000000000e+00  -1.2305859186345390e-01 -7.8237158303017348e-02 0.0000000000000000e+00  -9.5899472740928790e-02 -8.8038948469798456e-02 0.0000000000000000e+00  -6.9154673090643964e-02 -9.5185271591912174e-02 0.0000000000000000e+00  -5.5456240404073424e-02 -9.6580764347038356e-02 0.0000000000000000e+00  -2.9114101133685472e-02 -9.6173533461893917e-02 0.0000000000000000e+00  -1.9038256707565263e-02 -1.0486419582302013e-01 0.0000000000000000e+00  -5.9464178670186685e-03 -1.0047063873308518e-01 0.0000000000000000e+00  9.9371340369912575e-03 -9.1579214564529568e-02 0.0000000000000000e+00  3.4483094814980075e-02 -8.5410176543901817e-02 0.0000000000000000e+00  3.2581231784626304e-02 -6.3559944723622086e-02 0.0000000000000000e+00  2.2201673776565730e-03 -4.4585349163368440e-02 0.0000000000000000e+00  2.6198554728681177e-02 -3.1650936300194422e-02 0.0000000000000000e+00  2.2085374818935317e-02 -2.3314332107496651e-02 0.0000000000000000e+00  4.0465033739022757e-02 -2.1526352950563037e-02 0.0000000000000000e+00  3.6864541724694951e-02 -7.1602280634469597e-03 0.0000000000000000e+00  3.1475375318812809e-02 8.8519167007746653e-03 0.0000000000000000e+00  4.7648294174043086e-02 3.1471664887730857e-02 0.0000000000000000e+00  3.3012592461079369e-03 2.4018172609712663e-02 0.0000000000000000e+00  3.4436478875297605e-02 3.7906686128819256e-02 0.0000000000000000e+00  2.1522655621503154e-03 3.8076955799542192e-02 0.0000000000000000e+00  5.2204504808015244e-02 8.3118618658025070e-02 0.0000000000000000e+00  -6.6731061654776470e-03 8.7192670894874577e-02 0.0000000000000000e+00  -1.8553235566570042e-02 1.0707193224001177e-01 0.0000000000000000e+00  -4.0689073046495994e-02 1.1596522312142127e-01 0.0000000000000000e+00  -7.1529283298339630e-02 1.3032500338797920e-01 0.0000000000000000e+00  -1.0453033552818815e-01 1.1501597829076217e-01 0.0000000000000000e+00  -1.4109194407002082e-01 1.4095028396265519e-01 0.0000000000000000e+00  -1.5928561340329214e-01 1.0155170542069858e-01 0.0000000000000000e+00  -2.6214130427227100e-01 1.6312947592696408e-01 0.0000000000000000e+00  -3.3206770978573391e-01 2.0059421487993201e-01 0.0000000000000000e+00  -4.2411945630905457e-01 2.3052710177403848e-01 0.0000000000000000e+00  -6.5999810119911273e-01 2.7601700731221007e-01 0.0000000000000000e+00  -7.1232208829961752e-01 3.4851264122037995e-01 0.0000000000000000e+00  -7.6777061541877956e-01 1.8489662179846808e-01 0.0000000000000000e+00  -4.7610901048982596e-01 1.7130144179891160e-01 0.0000000000000000e+00  -7.7264635059300157e-01 2.1814632213395765e-01 0.0000000000000000e+00  -5.8173136873169395e-01 1.0629612494576007e-01 0.0000000000000000e+00  -8.1152324948531296e-01 8.1560590547671188e-02 0.0000000000000000e+00  -6.1883958524757288e-01 4.7970948771476611e-02 0.0000000000000000e+00  -6.6745668471697739e-01 -1.1065836169699052e-02 0.0000000000000000e+00  -4.8953796948357992e-01 -1.1429286248113010e-02 0.0000000000000000e+00  -4.7551180325748227e-01 -4.1560308868043634e-02 0.0000000000000000e+00  -3.9414616285128545e-01 -1.9514092685024399e-02 0.0000000000000000e+00  -3.5680199622843045e-01 -1.1393040550554472e-02 0.0000000000000000e+00  -2.9591604512608544e-01 -2.0327505607749621e-02 0.0000000000000000e+00  -2.8608367530135631e-01 -2.9550294816784693e-02 0.0000000000000000e+00  -2.3658742400734115e-01 -4.5214984629675756e-02 0.0000000000000000e+00  -2.0100254041397764e-01 -5.8940259189424110e-02 0.0000000000000000e+00  -1.7096174051203419e-01 -6.2602543768898206e-02 0.0000000000000000e+00  -1.3770880815760886e-01 -7.6115784877777592e-02 0.0000000000000000e+00  -1.1479949017088781e-01 -8.3724140432080693e-02 0.0000000000000000e+00  -8.2847747405587549e-02 -9.3470589500302292e-02 0.0000000000000000e+00  -6.5788775810418365e-02 -9.6503191959687887e-02 0.0000000000000000e+00  -4.1255563380512360e-02 -9.8201988587935107e-02 0.0000000000000000e+00  -2.2781323902881581e-02 -1.0097373090723158e-01 0.0000000000000000e+00  -3.9653150566466861e-03 -1.0209682877143884e-01 0.0000000000000000e+00  9.9314249160497980e-03 -9.6562681760825664e-02 0.0000000000000000e+00  -1.3414681425569206e-02 -1.2718229228111833e-01 0.0000000000000000e+00  3.4211578001744972e-02 -1.0913468986781667e-01 0.0000000000000000e+00  9.5618264909536456e-04 -4.0532983943057585e-02 0.0000000000000000e+00  3.5815651938481519e-02 -4.2379005299892664e-02 0.0000000000000000e+00  4.5082866199632220e-02 -3.8999986036762524e-02 0.0000000000000000e+00  2.3969719875749695e-02 -2.3820537100025841e-02 0.0000000000000000e+00  3.0055557945836871e-02 -1.0994783118012332e-02 0.0000000000000000e+00  3.0976215171960440e-02 -2.7273807074326838e-03 0.0000000000000000e+00  2.4994766988427734e-02 6.3670161831939059e-03 0.0000000000000000e+00  4.7967306408672243e-02 2.4302424126253729e-02 0.0000000000000000e+00  3.6548335903053925e-02 3.5809916937323716e-02 0.0000000000000000e+00  2.5945673011548449e-02 5.8243508790934116e-02 0.0000000000000000e+00  8.9094160321558351e-04 6.7706878970171025e-02 0.0000000000000000e+00  -6.3113368291225407e-04 9.0086047071566366e-02 0.0000000000000000e+00  -1.1564020511418832e-02 1.1651246606282842e-01 0.0000000000000000e+00  -2.9351372390898203e-02 1.0871977783940873e-01 0.0000000000000000e+00  -4.5007086823440026e-02 1.0416993260523515e-01 0.0000000000000000e+00  -7.5769618297588798e-02 9.9216288019781718e-02 0.0000000000000000e+00  -1.3283585848798238e-01 1.4852224036252151e-01 0.0000000000000000e+00  -1.6971502518130385e-01 1.4988416987298342e-01 0.0000000000000000e+00  -2.2555695851046745e-01 1.5749356185898244e-01 0.0000000000000000e+00  -2.9502692813682274e-01 1.4772937777895970e-01 0.0000000000000000e+00  -4.0689771507631195e-01 2.5839708304829978e-01 0.0000000000000000e+00  -5.3376482488161880e-01 2.6585352410378132e-01 0.0000000000000000e+00  -7.7577797790353320e-01 3.0610419059734667e-01 0.0000000000000000e+00  -5.7839258056345855e-01 2.1828053071950684e-01 0.0000000000000000e+00  -6.6124870676756153e-01 3.2202954310136017e-01 0.0000000000000000e+00  -6.8283147317484338e-01 1.7881246075591850e-01 0.0000000000000000e+00  -7.6322899008911038e-01 1.6973008192138031e-01 0.0000000000000000e+00  -5.0704068710628103e-01 7.6129976209340186e-02 0.0000000000000000e+00  -7.3149347392941910e-01 1.2803123776771442e-02 0.0000000000000000e+00  -2.5179689027247560e-02 -5.3258528369451918e-04 0.0000000000000000e+00  -2.5179689027247560e-02 -5.3258528369451918e-04 0.0000000000000000e+00  -1.9351863199126833e-02 -3.0481146958004613e-03 0.0000000000000000e+00  -1.9351863199126833e-02 -3.0481146958004613e-03 0.0000000000000000e+00  -1.8555324125259673e-01 1.4272477527793870e-03 0.0000000000000000e+00  3.5490332152218175e-02 -3.4440298810009033e-02 0.0000000000000000e+00  -5.8256336254097074e-01 3.2833141743682406e-03 0.0000000000000000e+00  3.5490332152218175e-02 -3.4440298810009033e-02 0.0000000000000000e+00  -6.7521736413976990e-02 -1.4929150565935246e-03 0.0000000000000000e+00  -2.1875163410308773e-01 1.0698383893377215e-02 0.0000000000000000e+00  3.3130957024137396e-02 2.3161973634963778e-03 0.0000000000000000e+00  -1.3837068093812009e-02 -1.4660490463098266e-02 0.0000000000000000e+00  -1.5373487633483273e-02 1.9703414977592692e-03 0.0000000000000000e+00  -9.5467993768968207e-01 -1.0197975275227904e-02 0.0000000000000000e+00  -6.5257423366654632e-02 -2.8246807913609993e-03 0.0000000000000000e+00  -2.0330501297196329e-01 7.0669536142504660e-04 0.0000000000000000e+00  3.6974940913783172e-02 -1.4552088726796515e-02 0.0000000000000000e+00  -1.3837068093812009e-02 -1.4660490463098266e-02 0.0000000000000000e+00  -1.5373487633483273e-02 1.9703414977592692e-03 0.0000000000000000e+00  2.4725409794809655e-01 -9.4863228209398145e-02 0.0000000000000000e+00  -1.1227835936832053e-01 1.3357539269547376e-02 0.0000000000000000e+00  -2.4545700524625888e-01 -1.5564587060977136e-03 0.0000000000000000e+00  3.2959767642309970e-02 3.4741103651513830e-03 0.0000000000000000e+00  2.3534079638306379e-02 2.8635031259106783e-02 0.0000000000000000e+00  3.4713320285969414e-02 6.4635412041824302e-03 0.0000000000000000e+00  2.7265695540783030e-01 -9.0605041538940792e-02 0.0000000000000000e+00  -2.2414561892923979e-01 1.2580738998859227e-02 0.0000000000000000e+00  2.7979972766511967e-02 -5.1874727267246104e-03 0.0000000000000000e+00  2.3534079638306379e-02 2.8635031259106783e-02 0.0000000000000000e+00  3.4713320285969414e-02 6.4635412041824302e-03 0.0000000000000000e+00  1.7437285026585009e-01 -2.8209704053445663e-02 0.0000000000000000e+00  -2.2108265406974667e-01 6.3653252834643403e-02 0.0000000000000000e+00  -4.5162132627573036e-02 -3.6169294059690141e-04 0.0000000000000000e+00  -1.5841792582843139e-01 1.3911057230254174e-02 0.0000000000000000e+00  -2.4377380944661364e-01 1.0241027076082446e-02 0.0000000000000000e+00  4.2162041583597577e-02 -5.6378461388598082e-02 0.0000000000000000e+00  1.8442265563995093e-02 -3.2773713660188004e-02 0.0000000000000000e+00  3.5870671743726816e-02 -9.2807933881729719e-03 0.0000000000000000e+00  1.2805500296663913e-02 1.9060396581844483e-02 0.0000000000000000e+00  1.2701001267889392e-01 -3.6045403570264437e-02 0.0000000000000000e+00  -1.8948628207339882e-01 4.7736902195808111e-02 0.0000000000000000e+00  -1.0669461776382931e-01 1.4942365015863768e-02 0.0000000000000000e+00  -2.5228955902525885e-01 -2.2021579088596371e-04 0.0000000000000000e+00  4.2162041583597577e-02 -5.6378461388598082e-02 0.0000000000000000e+00  1.8442265563995093e-02 -3.2773713660188004e-02 0.0000000000000000e+00  3.5870671743726816e-02 -9.2807933881729719e-03 0.0000000000000000e+00  1.2805500296663913e-02 1.9060396581844483e-02 0.0000000000000000e+00  8.8414769068397667e-02 -1.2733138619530238e-02 0.0000000000000000e+00  2.0110791457311580e-01 -5.9500658308737839e-02 0.0000000000000000e+00  1.9722868190148055e-01 -5.8687201548966492e-02 0.0000000000000000e+00  1.6825511785688762e-02 1.8003971204455328e-02 0.0000000000000000e+00  4.2853297675348179e-02 -4.4228141605249752e-02 0.0000000000000000e+00  3.9751773220832530e-02 -6.3235282248387086e-03 0.0000000000000000e+00  1.2578467911831774e-02 3.6478808177897976e-02 0.0000000000000000e+00  1.7695553712418426e-02 -3.3227365671204670e-02 0.0000000000000000e+00  3.1273639849435445e-02 1.3960699016023084e-02 0.0000000000000000e+00  3.3807526813365837e-02 -2.7752715867348076e-02 0.0000000000000000e+00  1.7021779537052223e-02 -2.4547096491615544e-02 0.0000000000000000e+00  -7.6691054189896701e-01 7.6497654325737394e-02 0.0000000000000000e+00  1.3751055747285140e-01 -1.0856617754351200e-02 0.0000000000000000e+00  1.6375469937472845e-01 -5.9126053407730965e-02 0.0000000000000000e+00  2.2173157310737854e-01 -7.0571721149739544e-02 0.0000000000000000e+00  -4.6884236374362970e-01 -3.0014842909632248e-02 0.0000000000000000e+00  -8.1917131970278501e-02 3.6131306604613393e-03 0.0000000000000000e+00  -1.6889458727144932e-01 2.1588483809237266e-02 0.0000000000000000e+00  -2.4166409243412146e-01 6.1411113648163805e-03 0.0000000000000000e+00  4.2660472865894403e-02 -4.8882105356978414e-02 0.0000000000000000e+00  4.2853297675348179e-02 -4.4228141605249752e-02 0.0000000000000000e+00  3.9751773220832530e-02 -6.3235282248387086e-03 0.0000000000000000e+00  1.2578467911831774e-02 3.6478808177897976e-02 0.0000000000000000e+00  4.2119504004156864e-02 3.3693654012907553e-02 0.0000000000000000e+00  3.1273639849435445e-02 1.3960699016023084e-02 0.0000000000000000e+00  3.3807526813365837e-02 -2.7752715867348076e-02 0.0000000000000000e+00  1.7021779537052223e-02 -2.4547096491615544e-02 0.0000000000000000e+00  4.3318497040296548e-02 3.5368631928562655e-02 0.0000000000000000e+00  5.3495856678625525e-02 8.4527989966676053e-03 0.0000000000000000e+00  5.2609284114350556e-02 -5.4079345562149869e-02 0.0000000000000000e+00  2.9862470143574727e-02 -1.8636539695690724e-02 0.0000000000000000e+00  1.1775971450668898e-02 3.9163265490821386e-02 0.0000000000000000e+00  3.7884249450766197e-02 -1.1754276835383635e-02 0.0000000000000000e+00  3.1418298700068813e-02 2.7707529844276352e-02 0.0000000000000000e+00  1.8052934645024669e-02 -1.7881912060987899e-02 0.0000000000000000e+00  4.4331162285596096e-02 -2.0085778586458203e-02 0.0000000000000000e+00  3.0884315025818784e-02 1.6655776116193525e-03 0.0000000000000000e+00  3.0472085761649066e-02 -2.3314275206200226e-02 0.0000000000000000e+00  1.1324768456311959e-02 -3.2290775848192878e-02 0.0000000000000000e+00  3.8297555228273147e-02 4.7381136696056841e-02 0.0000000000000000e+00  -5.6564682754240192e-01 4.9209514118889255e-02 0.0000000000000000e+00  -6.8571463896669804e-01 4.3508193234395837e-02 0.0000000000000000e+00  2.6919733172331352e-02 1.1197493313209056e-03 0.0000000000000000e+00  1.6277735047771194e-01 -1.6072950481050400e-02 0.0000000000000000e+00  -7.3833337904012231e-01 1.4365285602044908e-01 0.0000000000000000e+00  2.5256019547827141e-01 -7.4295018461940754e-02 0.0000000000000000e+00  7.2724589425922123e-02 -3.1941964224231546e-02 0.0000000000000000e+00  -4.4043233987289876e-01 -2.0383381763169020e-02 0.0000000000000000e+00  -4.7836216025054323e-01 -3.7493142145591886e-02 0.0000000000000000e+00  7.5192455544555968e-03 4.4496995756577990e-04 0.0000000000000000e+00  -1.0632833630492831e-01 4.0414524152222924e-03 0.0000000000000000e+00  -4.1662211199755689e-01 -3.5669401608378844e-02 0.0000000000000000e+00  -1.9244894185088376e-01 1.2401887824531025e-02 0.0000000000000000e+00  -1.6722884872496885e-01 4.9718781968585849e-03 0.0000000000000000e+00  2.3893937131356627e-02 -2.5097713739744423e-02 0.0000000000000000e+00  3.4094668256942025e-02 -1.6716311773887008e-02 0.0000000000000000e+00  5.2609284114350556e-02 -5.4079345562149869e-02 0.0000000000000000e+00  2.9862470143574727e-02 -1.8636539695690724e-02 0.0000000000000000e+00  4.2982898265150914e-02 -3.2449699656634745e-02 0.0000000000000000e+00  3.7884249450766197e-02 -1.1754276835383635e-02 0.0000000000000000e+00  3.1418298700068813e-02 2.7707529844276352e-02 0.0000000000000000e+00  4.3844193793926393e-02 3.1374729352979705e-02 0.0000000000000000e+00  2.4926425674441650e-02 9.8022485033640739e-03 0.0000000000000000e+00  3.0884315025818784e-02 1.6655776116193525e-03 0.0000000000000000e+00  3.0472085761649066e-02 -2.3314275206200226e-02 0.0000000000000000e+00  4.0053808924725584e-02 3.9075866427477478e-02 0.0000000000000000e+00  3.8297555228273147e-02 4.7381136696056841e-02 0.0000000000000000e+00  4.4724259166150380e-02 1.7314175563852899e-02 0.0000000000000000e+00  4.9266112095179913e-02 1.1740797728503434e-02 0.0000000000000000e+00  3.1113506473404325e-02 2.7708459246127328e-03 0.0000000000000000e+00  4.3652673996029255e-02 -5.4919639764247082e-02 0.0000000000000000e+00  3.1527858359635161e-02 1.7494807001178021e-02 0.0000000000000000e+00  2.7011899674084915e-02 -1.8161634748692635e-02 0.0000000000000000e+00  3.2625087634990550e-02 1.1423901689941391e-02 0.0000000000000000e+00  3.2817354525653035e-02 3.0881610435347980e-02 0.0000000000000000e+00  3.8262718245369504e-02 -1.5822969515992626e-02 0.0000000000000000e+00  3.2406591318819178e-02 -1.7641904351595308e-02 0.0000000000000000e+00  2.9986773992228107e-02 -4.7611651764544547e-03 0.0000000000000000e+00  2.9678357610668973e-02 -1.0142759294527525e-02 0.0000000000000000e+00  3.0511383241307987e-02 8.0632536162593988e-03 0.0000000000000000e+00  3.8187006884848697e-02 -2.7479038536762358e-02 0.0000000000000000e+00  4.1975941287358813e-02 -6.0910563117186511e-02 0.0000000000000000e+00  3.3837922795250830e-02 8.8959082107603268e-03 0.0000000000000000e+00  4.1361338002481388e-02 3.2362384433255709e-03 0.0000000000000000e+00  4.6870451238699845e-02 -3.9549983998718459e-02 0.0000000000000000e+00  2.9546512763149815e-02 1