<?xml version="1.0"?>
<VTKFile type="UnstructuredGrid"  version="0.1"  >
<UnstructuredGrid>
<Piece  NumberOfPoints="1333" NumberOfCells="2365">
<Points>
<DataArray  type="Float64"  NumberOfComponents="3"  format="ascii">-0.4960573506572389 0.06266661678215227 0  -0.4960573506572389 -0.06266661678215214 0  -0.4648882429441257 -0.184062276342339 0  -0.4045084971874739 -0.2938926261462363 0  -0.3187119948743448 -0.3852566213878947 0  -0.2128896457825361 -0.4524135262330099 0  -0.09369065729286231 -0.4911436253643444 0  0.03139525976465642 -0.4990133642141358 0  0.1545084971874736 -0.4755282581475768 0  0.2679133974894984 -0.4221639627510075 0  0.3644843137107056 -0.3422735529643445 0  0.4381533400219316 -0.2408768370508581 0  0.4842915805643155 -0.1243449435824277 0  0.5 0 0  0.4842915805643155 0.1243449435824274 0  0.4381533400219318 0.2408768370508577 0  0.3644843137107058 0.3422735529643443 0  0.2679133974894983 0.4221639627510075 0  0.1545084971874737 0.4755282581475768 0  0.03139525976465676 0.4990133642141358 0  -0.0936906572928623 0.4911436253643444 0  -0.2128896457825364 0.4524135262330097 0  -0.3187119948743449 0.3852566213878946 0  -0.4045084971874737 0.2938926261462366 0  -0.4648882429441257 0.1840622763423391 0  -0.9979453927503363 0.06407021998071323 0  -0.9979453927503363 -0.06407021998071299 0  -0.9815591569910653 -0.1911586287013723 0  -0.9490557470106686 -0.3151082180236206 0  -0.9009688679024191 -0.433883739117558 0  -0.8380881048918408 -0.5455349012105485 0  -0.7614459583691346 -0.6482283953077882 0  -0.672300890261317 -0.7402779970753153 0  -0.57211666012217 -0.8201722545969556 0  -0.4625382902408353 -0.886599306373 0  -0.3453650544213073 -0.9384684220497606 0  -0.2225209339563146 -0.9749279121818236 0  -0.09602302590768157 -0.9953791129491982 0  0.03205157757165486 -0.9994862162006879 0  0.1595998950333784 -0.9871817834144503 0  0.284527586631032 -0.9586678530366608 0  0.4047833431223937 -0.9144126230158125 0  0.5183925683105245 -0.8551427630053464 0  0.6234898018587334 -0.7818314824680299 0  0.718349350097727 -0.6956825506034869 0  0.8014136218679559 -0.598110530491217 0  0.8713187041233894 -0.4907175520039379 0  0.9269167573460216 -0.3752670048793746 0  0.9672948630390293 -0.2536545839095075 0  0.9917900138232461 -0.1278771616845066 0  1 0 0  0.9917900138232462 0.127877161684506 0  0.9672948630390295 0.2536545839095073 0  0.9269167573460217 0.3752670048793741 0  0.8713187041233894 0.4907175520039379 0  0.8014136218679566 0.598110530491216 0  0.7183493500977276 0.6956825506034864 0  0.6234898018587336 0.7818314824680298 0  0.5183925683105252 0.8551427630053461 0  0.4047833431223938 0.9144126230158125 0  0.2845275866310324 0.9586678530366606 0  0.1595998950333795 0.9871817834144501 0  0.03205157757165533 0.9994862162006879 0  -0.09602302590768176 0.9953791129491982 0  -0.2225209339563143 0.9749279121818236 0  -0.3453650544213075 0.9384684220497604 0  -0.4625382902408351 0.8865993063730001 0  -0.5721166601221698 0.8201722545969558 0  -0.6723008902613169 0.7402779970753155 0  -0.7614459583691342 0.6482283953077888 0  -0.8380881048918406 0.5455349012105487 0  -0.900968867902419 0.4338837391175582 0  -0.9490557470106685 0.3151082180236213 0  -0.9815591569910653 0.1911586287013725 0  -1 1 0  -1 -1 0  1 -1 0  1 1 0  -1 0 0  0 -1 0  1 -0.512561759845706 0  1 0.5125617598457033 0  0 1 0  -0.9979453927503363 1.179611963664229e-16 0  -1 -0.5 0  -1 0.5 0  -0.03198572416801335 -0.9974326645749431 0  0.5 -1 0  -0.5 -1 0  1 -0.2562808799228529 0  1 0.2562808799228516 0  -0.03198572416801321 0.9974326645749431 0  -0.5 1 0  0.5 1 0  -1 -0.25 0  -1 0.25 0  3.292670182075338e-05 -0.9984594403878155 0  0.25 -1 0  -0.25 -1 0  1 -0.1281404399614265 0  1 -0.3844213198842794 0  1 0.1281404399614258 0  1 0.3844213198842775 0  3.29267018210587e-05 0.9984594403878155 0  -0.25 1 0  0.25 1 0  -0.965307452000867 -0.2531334233624964 0  -1 -0.125 0  -1 -0.375 0  -0.9653074520008669 0.2531334233624969 0  -1 0.125 0  -1 0.375 0  0.2220637408322052 -0.9729248182255555 0  0.125 -1 0  0.375 -1 0  -0.283942994188811 -0.9566981671157921 0  -0.125 -1 0  -0.375 -1 0  -0.2839429941888109 0.956698167115792 0  -0.125 1 0  -0.375 1 0  0.222063740832206 0.9729248182255553 0  0.125 1 0  0.375 1 0  -0.9897522748707008 -0.1276144243410426 0  -1 -0.0625 0  -1 -0.1875 0  -1 -0.3125 0  -0.9897522748707008 0.1276144243410429 0  -1 0.0625 0  -1 0.1875 0  -1 0.3125 0  0.09582573630251663 -0.9933339998075691 0  0.0625 -1 0  0.1875 -1 0  0.3125 -1 0  -0.1592719799319981 -0.9851535125655109 0  -0.0625 -1 0  -0.1875 -1 0  -0.3125 -1 0  -0.159271979931998 0.9851535125655109 0  -0.0625 1 0  -0.1875 1 0  -0.3125 1 0  0.09582573630251744 0.993333999807569 0  0.0625 1 0  0.1875 1 0  0.3125 1 0  -0.9938488338105186 -0.09584232216087782 0  -0.9979453927503363 -0.03203510999035644 0  -1 -0.09375 0  -0.9856557159308831 -0.1593865265212075 0  -1 -0.15625 0  -0.9938488338105186 0.09584232216087807 0  -0.9979453927503363 0.03203510999035668 0  -1 0.09375 0  -0.9856557159308831 0.1593865265212077 0  -1 0.15625 0  0.1277128156679475 -0.9902578916110096 0  0.06393865693708575 -0.9964101080041285 0  0.03125 -1 0  0.09375 -1 0  0.1908318179327918 -0.980053300820003 0  0.21875 -1 0  0.15625 -1 0  -0.1276475029198398 -0.9902663127573545 0  -0.06400437503784746 -0.9964058887620706 0  -0.03125 -1 0  -0.09375 -1 0  -0.1908964569441563 -0.9800407123736672 0  -0.21875 -1 0  -0.15625 -1 0  -0.1276475029198399 0.9902663127573545 0  -0.06400437503784749 0.9964058887620706 0  -0.03125 1 0  -0.09375 1 0  -0.1908964569441562 0.9800407123736672 0  -0.21875 1 0  -0.15625 1 0  0.1277128156679485 0.9902578916110095 0  0.06393865693708639 0.9964101080041284 0  0.03125 1 0  0.09375 1 0  0.1908318179327927 0.9800533008200027 0  0.21875 1 0  0.15625 1 0  -0.9918005543406097 -0.1117283732509602 0  -1 -0.03125 0  -0.9979453927503363 -0.04805266498553472 0  -0.9958971132804275 -0.07995627107079541 0  -1 -0.109375 0  -1 -0.078125 0  -0.9918005543406097 0.1117283732509605 0  -1 0.03125 0  -0.9979453927503363 0.04805266498553495 0  -0.9958971132804275 0.07995627107079564 0  -1 0.109375 0  -1 0.078125 0  0.1117692759852321 -0.9917959457092893 0  0.04799511725437031 -0.9979481621024082 0  0.01604225213673781 -0.9989728282942517 0  0.046875 -1 0  0.0798821966198012 -0.9948720539058489 0  0.109375 -1 0  0.078125 -1 0  -0.1118352644137607 -0.9928227128532764 0  -0.04799504960293041 -0.9969192766685069 0  -0.0159763987330963 -0.9979460524813792 0  -0.046875 -1 0  -0.08001370047276452 -0.9958925008556344 0  -0.109375 -1 0  -0.078125 -1 0  -0.1118352644137608 0.9928227128532764 0  -0.04799504960293036 0.9969192766685069 0  -0.01597639873309608 0.9979460524813792 0  -0.046875 1 0  -0.08001370047276463 0.9958925008556344 0  -0.109375 1 0  -0.078125 1 0  0.111769275985233 0.9917959457092893 0  0.04799511725437086 0.9979481621024082 0  0.0160422521367382 0.9989728282942517 0  0.046875 1 0  0.07988219661980192 0.9948720539058487 0  0.109375 1 0  0.078125 1 0  -0.9979453927503363 -0.01601755499517816 0  -1 -0.046875 0  -0.9979453927503363 -0.05606144248312386 0  -0.9948729735454731 -0.08789929661583662 0  -0.9969212530153819 -0.07201324552575419 0  -1 -0.0703125 0  -1 -0.0859375 0  -0.9979453927503363 0.0160175549951784 0  -1 0.046875 0  -0.9979453927503363 0.05606144248312409 0  -0.9948729735454731 0.08789929661583686 0  -0.9969212530153819 0.07201324552575444 0  -1 0.0703125 0  -1 0.0859375 0  0.05596688709572803 -0.9971791350532684 0  0.015625 -1 0  0.02404691485419633 -0.9992295222474699 0  0.04002334741301258 -0.9987171891515481 0  0.0546875 -1 0  0.0390625 -1 0  0.07191042677844348 -0.9956410809549887 0  0.0703125 -1 0  -0.05599971232038894 -0.9966625827152887 0  -0.015625 -1 0  -0.02398106145055483 -0.9976893585281612 0  -0.03999038688547188 -0.9971759706217249 0  -0.0546875 -1 0  -0.0390625 -1 0  -0.08801836319022305 -0.9956358069024163 0  -0.1015625 -1 0  -0.07200903775530598 -0.9961491948088526 0  -0.0703125 -1 0  -0.0859375 -1 0  -0.05599971232038892 0.9966625827152887 0  -0.015625 1 0  -0.02398106145055465 0.9976893585281612 0  -0.03999038688547178 0.9971759706217249 0  -0.0546875 1 0  -0.0390625 1 0  -0.08801836319022319 0.9956358069024163 0  -0.1015625 1 0  -0.07200903775530607 0.9961491948088526 0  -0.0703125 1 0  -0.0859375 1 0  0.05596688709572863 0.9971791350532684 0  0.015625 1 0  0.02404691485419676 0.9992295222474699 0  0.0400233474130131 0.9987171891515481 0  0.0546875 1 0  0.0390625 1 0  0.07191042677844416 0.9956410809549885 0  0.0703125 1 0  -1 -0.015625 0  -0.9979453927503363 -0.0240263324927673 0  -0.9979453927503363 -0.04004388748794558 0  -1 -0.0546875 0  -1 -0.0390625 0  -0.9979453927503363 -0.06006583123191843 0  -0.9974333228828591 -0.06804173275323359 0  -1 -0.06640625 0  -1 -0.07421875 0  -1 0.015625 0  -0.9979453927503363 0.02402633249276754 0  -0.9979453927503363 0.04004388748794582 0  -1 0.0546875 0  -1 0.0390625 0  -0.9979453927503363 0.06006583123191866 0  -0.9974333228828591 0.06804173275323383 0  -1 0.06640625 0  -1 0.07421875 0  0.008037589419279281 -0.9987161343410336 0  0.0234375 -1 0  0.0280492462129256 -0.9993578692240789 0  0.04400923233369144 -0.9983326756269781 0  0.05198100217504917 -0.9975636485778383 0  0.05859375 -1 0  0.05078125 -1 0  0.03603746249233372 -0.999101702676118 0  0.03515625 -1 0  0.04296875 -1 0  -0.007971736015637774 -0.9982027464345974 0  -0.0234375 -1 0  -0.1039291451607211 -0.9941009129012373 0  -0.00797173601563751 0.9982027464345974 0  -0.0234375 1 0  -0.1039291451607213 0.9941009129012373 0  0.008037589419279628 0.9987161343410336 0  0.0234375 1 0  0.02804924621292605 0.9993578692240789 0  0.04400923233369198 0.9983326756269781 0  0.05198100217504974 0.9975636485778383 0  0.05859375 1 0  0.05078125 1 0  0.03603746249233421 0.999101702676118 0  0.03515625 1 0  0.04296875 1 0  -0.9979453927503363 -0.008008777497589022 0  -1 -0.0234375 0  -0.9979453927503363 -0.02803072124156187 0  -0.9979453927503363 -0.04404827623674015 0  -0.9979453
[...]
<PointData  Scalars="f_53"> 
<DataArray  type="Float64"  Name="f_53"  format="ascii">-1.9494690411609047e-01  -1.9469584310665683e-01  -1.8384004692013767e-01  -1.6153460901063627e-01  -1.2987695581184180e-01  -8.7828224392751300e-02  -3.9005334972859879e-02  1.2746391115452362e-02  6.4142729593292730e-02  1.0932964101025520e-01  1.4649930684065363e-01  1.7415806287824187e-01  1.9049413053501515e-01  1.9641198683033498e-01  1.9065970823800257e-01  1.7435779947650615e-01  1.4754016311877272e-01  1.1010770464516892e-01  6.3694999994842724e-02  1.3702834117476840e-02  -3.9164245358831042e-02  -8.7694700704830320e-02  -1.3006594584874145e-01  -1.6216234407511110e-01  -1.8424869244019509e-01  -6.3050537513190455e-04  -6.3056206595275550e-04  -5.2498081478895512e-03  -1.2552616298887776e-02  -2.0433414673742514e-02  -2.7097234558670365e-02  -3.2171869683359812e-02  -3.5559018581906861e-02  -3.6875418083273111e-02  -3.5695787733081762e-02  -3.1628208021746380e-02  -2.3176468094016241e-02  -1.0879522048939943e-02  3.6370869796583790e-03  1.7354383479268525e-02  2.7885335621080500e-02  3.4216778004104019e-02  3.6585183136740557e-02  3.6379249644829269e-02  3.4208602089968905e-02  2.9956629108785011e-02  2.3931963677764696e-02  1.6450852215559895e-02  8.7231655757951526e-03  2.4526001691404817e-03  0.0000000000000000e+00  2.4532318989191372e-03  8.6561288783596861e-03  1.6495871460674293e-02  2.3901595358572218e-02  3.0023745089427158e-02  3.4127180120222915e-02  3.6342799156375935e-02  3.6652394283235058e-02  3.4221605614592025e-02  2.7836362670440679e-02  1.7361856540511221e-02  3.6372595536006539e-03  -1.0880987668830460e-02  -2.3113173225847404e-02  -3.1535415457702692e-02  -3.5797978358656765e-02  -3.6777357204607425e-02  -3.5653694789271287e-02  -3.2307903456340457e-02  -2.7251678678862436e-02  -2.0467903293850030e-02  -1.2527485302890102e-02  -5.2277688222900631e-03  0.0000000000000000e+00  0.0000000000000000e+00  0.0000000000000000e+00  0.0000000000000000e+00  0.0000000000000000e+00  -3.9814811538140686e-05  0.0000000000000000e+00  0.0000000000000000e+00  -3.9814811538140686e-05  -6.3723762587579642e-04  0.0000000000000000e+00  0.0000000000000000e+00  -3.7108485822974105e-03  3.3540064489431504e-02  -3.3497241351811757e-02  0.0000000000000000e+00  0.0000000000000000e+00  -3.7113549427348303e-03  -3.3497241351811757e-02  3.3540064489431504e-02  0.0000000000000000e+00  0.0000000000000000e+00  -3.5989945025877110e-05  2.5120657404071583e-02  -2.5162501220793488e-02  0.0000000000000000e+00  0.0000000000000000e+00  0.0000000000000000e+00  0.0000000000000000e+00  -3.6067036902764392e-05  -2.5162501220793488e-02  2.5120657404071583e-02  -9.2794369119551974e-03  0.0000000000000000e+00  0.0000000000000000e+00  -9.2719688359279330e-03  0.0000000000000000e+00  0.0000000000000000e+00  2.3054453133349452e-02  1.3862839996629434e-02  3.2003418079730353e-02  -2.7848051327867610e-02  -1.3956715271778828e-02  -3.2012452734815330e-02  -2.7866470740396554e-02  -1.3956715271778828e-02  -3.2012452734815330e-02  2.3054959820602051e-02  1.3862839996629434e-02  3.2003418079730353e-02  -3.0525382027045338e-03  0.0000000000000000e+00  0.0000000000000000e+00  0.0000000000000000e+00  -3.0560934161771177e-03  0.0000000000000000e+00  0.0000000000000000e+00  0.0000000000000000e+00  1.0767514582119367e-02  7.0846877226880961e-03  1.9956195735785481e-02  2.9235747714104664e-02  -1.7399526806252869e-02  -7.1722685878867669e-03  -2.0013512507061345e-02  -2.9254263198175600e-02  -1.7407891118433279e-02  -7.1722685878867669e-03  -2.0013512507061345e-02  -2.9254263198175600e-02  1.0769616720247795e-02  7.0846877226880961e-03  1.9956195735785481e-02  2.9235747714104664e-02  -1.8638256232776328e-03  -6.3580947849885001e-04  0.0000000000000000e+00  -4.1862682886239302e-03  0.0000000000000000e+00  -1.8652200207456612e-03  -6.3555641087072190e-04  0.0000000000000000e+00  -4.1995829321396783e-03  0.0000000000000000e+00  1.4148359485662249e-02  7.2460428551217176e-03  3.5456713994832297e-03  1.0541107696026257e-02  2.0309974234995542e-02  2.2674640963087987e-02  1.7019541216297271e-02  -1.4240481959632621e-02  -7.3414849275035823e-03  -3.6268536394313041e-03  -1.0631780372598820e-02  -2.0359310779399706e-02  -2.2734878087362319e-02  -1.7091776462739159e-02  -1.4241630926405003e-02  -7.3422151305606162e-03  -3.6268536394313041e-03  -1.0631780372598820e-02  -2.0362666791615500e-02  -2.2734878087362319e-02  -1.7091776462739159e-02  1.4155274501796164e-02  7.2464746643530779e-03  3.5456713994832297e-03  1.0541107696026257e-02  2.0295795093677321e-02  2.2674640963087987e-02  1.7019541216297271e-02  -2.4605377502051021e-03  0.0000000000000000e+00  -6.3358336624906749e-04  -1.2524234871190913e-03  0.0000000000000000e+00  0.0000000000000000e+00  -2.4667066583185754e-03  0.0000000000000000e+00  -6.3304347510257232e-04  -1.2525528582142988e-03  0.0000000000000000e+00  0.0000000000000000e+00  1.2477123338121983e-02  5.4497832970579222e-03  1.8041972894034843e-03  5.3228883835360124e-03  9.0212775426163801e-03  1.2220097709219176e-02  8.8256560670434935e-03  -1.2575814053630657e-02  -5.5337030342078319e-03  -1.8762494787714875e-03  -5.4065360800166747e-03  -9.1255092931572766e-03  -1.2313865534944811e-02  -8.9161506857085814e-03  -1.2580142771076682e-02  -5.5340034320164322e-03  -1.8764995909070696e-03  -5.4065360800166747e-03  -9.1267693211041119e-03  -1.2313865534944811e-02  -8.9161506857085814e-03  1.2481923033861329e-02  5.4499983950177045e-03  1.8044220761291563e-03  5.3228883835360124e-03  9.0214577608860452e-03  1.2220097709219176e-02  8.8256560670434935e-03  -6.3696737655653574e-04  0.0000000000000000e+00  -6.3199738437023977e-04  -1.5586165609639082e-03  -9.4233984125279002e-04  0.0000000000000000e+00  0.0000000000000000e+00  -6.3681875104499620e-04  0.0000000000000000e+00  -6.3191052019572510e-04  -1.5591461954999328e-03  -9.4230088842695210e-04  0.0000000000000000e+00  0.0000000000000000e+00  6.3503952018096940e-03  1.7563920538940466e-03  2.7220195519938933e-03  4.5451500689833611e-03  6.2060998310425972e-03  4.4360057387526162e-03  8.1366331778907446e-03  7.9578428879348278e-03  -6.4398056144690718e-03  -1.8359816424392016e-03  -2.7946133619205613e-03  -4.6240088650783733e-03  -6.2916189130465738e-03  -4.5184882051896597e-03  -1.0006575135037735e-02  -1.1477364580477070e-02  -8.2367082562345047e-03  -8.0474456770440964e-03  -9.7777796401909284e-03  -6.4408081102136135e-03  -1.8359816424392016e-03  -2.7949502639763517e-03  -4.6245762316485719e-03  -6.2916189130465738e-03  -4.5184882051896597e-03  -1.0007933894385417e-02  -1.1477364580477070e-02  -8.2382897223033658e-03  -8.0474456770440964e-03  -9.7777796401909284e-03  6.3508349786434055e-03  1.7563920538940466e-03  2.7222658412418138e-03  4.5454955341276554e-03  6.2060998310425972e-03  4.4360057387526162e-03  8.1367474466417095e-03  7.9578428879348278e-03  0.0000000000000000e+00  -6.3641715790487832e-04  -6.3457897481581835e-04  0.0000000000000000e+00  0.0000000000000000e+00  -6.3149560302632325e-04  -7.8654947462221576e-04  0.0000000000000000e+00  0.0000000000000000e+00  0.0000000000000000e+00  -6.3622795145427849e-04  -6.3429599483458591e-04  0.0000000000000000e+00  0.0000000000000000e+00  -6.3103716217193905e-04  -7.8658233278569654e-04  0.0000000000000000e+00  0.0000000000000000e+00  8.8453636254443556e-04  2.6523422878444391e-03  3.1799243299624833e-03  4.9979345581262500e-03  5.9006648429437781e-03  6.6460066752020439e-03  5.7650344205167963e-03  4.0915448713975495e-03  3.9912482565019284e-03  4.8799074425445376e-03  -9.5651373590919045e-04  -2.7323919976742915e-03  -1.1732264034347850e-02  -9.5667591599911416e-04  -2.7323919976742915e-03  -1.1736595725457063e-02  8.8463480386218268e-04  2.6523422878444391e-03  3.1801355881844670e-03  4.9982244765523695e-03  5.9010496507698332e-03  6.6460066752020439e-03  5.7650344205167963e-03  4.0918128406556434e-03  3.9912482565019284e-03  4.8799074425445376e-03  -6.3720022536534096e-04  0.0000000000000000e+00  -6.3607438198270559e-04  -6.3394089849032190e-04  -6.3285207097370504e-04  0.0000000000000000e+00  0.0000000000000000e+00  -6.3520289020747671e-04  0.0000000000000000e+00  0.0000000000000000e+00  -1.0974293416162852e-03  -6.3707688664454520e-04  0.0000000000000000e+00  -6.3600881776365722e-04  -6.3380508500614273e-04  -6.3266084926444062e-04  0.0000000000000000e+00  0.0000000000000000e+00  -6.3496196781831797e-04  0.0000000000000000e+00  0.0000000000000000e+00  -1.0974639032969129e-03  8.5869374950535600e-04  1.3445488845797778e-03  2.2633932166063919e-03  3.0993636226530801e-03  2.2046399430875495e-03  3.4085921842602093e-03  6.7989360164607965e-03  4.3184527560903106e-03  3.8644148175440113e-03  3.7685533033418590e-03  4.2137434582047682e-03  4.7716743031461697e-03  5.1014893984395477e-03  4.6580704326784194e-03  -9.3827004415332515e-04  -9.3827004415332515e-04  8.5869374950535600e-04  1.3447181217309545e-03  2.2636569848415926e-03  3.0993636226530801e-03  2.2046399430875495e-03  3.4087957462576651e-03  6.7994716077440284e-03  4.3187650882467862e-03  3.8646360299957878e-03  3.7685533033418590e-03  4.2137434582047682e-03  4.7719866528166399e-03  5.1014893984395477e-03  4.6580704326784194e-03  0.0000000000000000e+00  -6.3677737432124917e-04  0.0000000000000000e+00  0.0000000000000000e+00  -6.3653695041113992e-04  0.0000000000000000e+00  1.3077141849438098e-03  1.5744196728620654e-03  2.4927989896055547e-03  2.9510662184953551e-03  3.3226053363774222e-03  2.8759435714575793e-03  2.0338629100930556e-03  1.9805717822689748e-03  2.4285793657286745e-03  3.5228657958066519e-03  3.9780081119448361e-03  3.7507727036397366e-03  3.6571358090112952e-03  3.8799249600860535e-03  4.2050323490760563e-03  4.1025202609967686e-03  1.3077141849438098e-03  1.5746304426752704e-03  2.4930500789849147e-03  2.9513010615496468e-03  3.3226053363774222e-03  2.8759435714575793e-03  2.0340884197685384e-03  1.9805717822689748e-03  2.4285793657286745e-03  3.5230518761307406e-03  3.9782510308986807e-03  3.7509722972704882e-03  3.6571358090112952e-03  3.8799249600860535e-03  4.2053231868236203e-03  4.1025202609967686e-03  0.0000000000000000e+00  0.0000000000000000e+00  1.5321022691404281e-03  2.6074257991715532e-03  3.0655186090867465e-03  3.2942836052354861e-03  3.4341595476975934e-03  3.2110055928011015e-03  2.8365673791114019e-03  2.7641647849068647e-03  2.9876767684156721e-03  2.3781189490390442e-03  2.5404801056691730e-03  1.5321022691404281e-03  2.6076796046056307e-03  3.0657446692200856e-03  3.2944908200361954e-03  3.4341595476975934e-03  3.2110055928011015e-03  2.8368067823444790e-03  2.7641647849068647e-03  2.9876767684156721e-03  2.3783739995567451e-03  2.5404801056691730e-03  -1.4152773572280549e-05  -8.1468976943961671e-02  -8.0707292859894766e-02  -5.7982880039519943e-02  -5.9936199916093516e-02  5.2723372298051338e-02  5.2553606918506288e-02  7.8714943245233315e-02  7.8788643630526622e-02  8.3976553044426513e-02  -8.0283849429227117e-03  -8.7028915966172130e-03  -8.4119925213372512e-02  8.1620047833047396e-02  -8.8322138001079450e-02  1.9121159970546350e-02  9.9632965185357011e-02  -7.3749171128850655e-02  2.2424566835061176e-02  -2.2468271526266705e-02  2.2424566835061176e-02  -2.2468271526266705e-02  0.0000000000000000e+00  0.0000000000000000e+00  4.3281188822656955e-02  0.0000000000000000e+00  0.0000000000000000e+00  2.7849249368698738e-02  2.3839636884216801e-02  6.0896557503565471e-02  8.2145155679985551e-02  -6.2935610536959147e-02  -1.0628858683080175e-01  -9.0042109572344237e-02  -6.6198302430845027e-02  -3.4734312818728207e-02  -4.1779453960266992e-02  0.0000000000000000e+00  -1.1902924971091253e-02  -1.7927401497544619e-02  -1.7223414937257986e-02  1.1946952062622047e-02  1.1946952062622047e-02  1.9239074763847105e-02  1.6999046954373355e-02  6.2016622392649857e-02  -2.6902539565858773e-02  1.2557170373978727e-01  -1.3460335927709630e-01  -4.2617354194783019e-02  -5.4381274830770876e-02  9.2264617997762893e-02  -5.5890113670325411e-02  1.1445342637297384e-01  -5.4044276631662225e-02  5.1859212054246255e-02  8.4116742097227790e-02  1.1847190127713072e-02  5.2792747749047936e-02  -9.8234514774349913e-02  3.2104539345838692e-02  -4.5382682533253005e-02  -1.2232717230315575e-01  -5.0132234064954671e-02  2.8428697809309896e-02  5.5857788863808211e-02  5.5786344990012303e-02  1.2233196934395776e-01  -1.1733365088953953e-02  4.5458578191300142e-02  5.4568283887960430e-02  -2.7459884005368484e-02  -7.6809215356342442e-02  1.2891057577173926e-01  3.4392047179533113e-02  1.4960253273007375e-02  9.5347980451271935e-02  -1.2995690652616562e-01  4.1983129919080875e-02  5.7934720773644924e-03  1.1170978681102393e-01  1.1460553890033306e-01  3.0048595219510147e-02  3.0048595219510147e-02  -2.7573388184827734e-02  -2.7442942949838133e-02  6.4435329098241984e-02  -9.0071285476638514e-03  -1.0899156897266325e-01  1.3748039538896781e-01  5.6830967841309712e-02  6.5073856165658292e-02  -4.5087319299460887e-02  -4.9510804550310393e-02  -3.9686852906832694e-02  -1.5666266047114054e-02  -4.4697431215457488e-02  -8.1158313966902873e-02  -4.9829338874993384e-02  -5.3065833643512306e-02  -5.3414107769400879e-02  5.3221349520656366e-02  -1.2217225328391865e-01  4.6510005224312825e-02  0.0000000000000000e+00  0.0000000000000000e+00  -1.5650555475181186e-02  -1.5669264913772702e-02  -1.1101668853181645e-02  -1.1673535803011054e-01  -7.4427955844793461e-02  -1.0121293530173964e-02  1.3337899392556860e-01  4.3509512376118623e-02  4.0470432196482560e-02  5.0664703837853431e-02  -2.1593625050969735e-03  -1.3074955543643824e-01  1.5312320583111688e-02  0.0000000000000000e+00  1.6182063318230570e-02  2.6417562060624244e-02  2.7612480760296269e-02  -9.3110922904084514e-02  -1.3906167563425847e-01  1.4751877839389776e-01  4.3485311479363950e-02  -3.0139146448716247e-02  -1.1902924971091253e-02  0.0000000000000000e+00  -3.0139146448716247e-02  0.0000000000000000e+00  0.0000000000000000e+00  0.0000000000000000e+00  8.1806523504773840e-02  4.1156595406829539e-02  -3.9092811474101381e-02  4.8415293677803659e-02  8.2930108132199698e-02  -4.6883614286393115e-02  3.1528972074085643e-02  1.8102567683762165e-02  -3.7194114543640300e-02  -7.5666293321829475e-02  -7.2559938428831586e-02  8.7215517758725533e-02  1.0273724621112827e-01  1.8261426297278515e-02  -2.2756945692463029e-03  1.8146064052224882e-03  1.1357126581728196e-02  5.6779538813564463e-02  -6.7004876875831357e-02  4.5283823224422821e-02  -8.9820195047056295e-02  -5.3410231689870961e-02  8.5758096319380792e-02  -3.5097749359627887e-02  -1.3984145028907072e-01  -3.9744833225720234e-02  -4.6097229304186381e-02  1.3252602746071904e-01  -4.1813118601434496e-02  1.0618912604766065e-01  -4.3064550403273769e-02  7.2711352071202301e-02  3.1860662516548240e-02  -4.7158374386105158e-02  -7.3973532118218804e-02  4.7241684384517389e-02  5.8725815684310102e-02  9.3091056181358531e-03  9.1547813104382973e-03  4.1591956419552358e-02  1.1224801660742131e-01  -8.0624442156848775e-02  3.5336010064019416e-02  -1.1086887421213033e-01  -9.6338524171769774e-02  4.7392594790332802e-02  -4.9860289696487876e-02  1.4853052074218900e-02  1.4825801622538692e-02  -9.8527181658859542e-02  -3.9592205579013946e-02  -7.6268555832789256e-02  -5.1242863069425854e-02  -2.7282425506753340e-02  -2.9471526060099566e-02  -2.5034509331397815e-02  3.2231783046221832e-02  -1.2293563855338412e-01  1.3244969758068423e-01  -1.4765227439661643e-01  -2.2359277179604488e-02  7.6184184107850189e-02  1.8659780467073773e-02  -3.3290278192959641e-02  -3.3273821047023103e-02  -8.6672547286588048e-02  2.1620426014904583e-02  2.8929627280324277e-02  -2.6194545309615905e-02  -1.1960324655954793e-01  -3.1215654062334956e-02  3.2929546094681510e-02  4.2751097928904726e-02  -5.3035956582454566e-02  -1.7782306543231156e-02  -9.6936542626553882e-03  -9.3502989019108810e-03  -1.0924444299028809e-02  -1.5822511281112803e-01  7.8340522015749703e-02  7.2746575339270050e-02  8.7626833235841025e-03  -2.0071423544253043e-02  -9.1656035871919578e-03  6.5202357656662839e-03  -5.3778534812516064e-02  9.2824445166682937e-02  -3.5352310276031182e-02  3.5587083002385347e-02  5.3612455162835526e-02  1.0080257086133618e-01  -7.5697539230026603e-02  -1.6642360348815510e-02  6.5018459555691729e-02  -4.5847359944169740e-02  5.6157496126346136e-02  -2.2507807552796879e-02  1.6396027227102032e-02  6.1707739241211854e-02  -3.4557930676131270e-02  2.7807492436948775e-02  -1.1578670614186260e-02  -1.4297537476617286e-02  1.1005361449956837e-01  3.2263383567007059e-02  -1.0950480389034321e-01  2.6484170360972708e-02  3.8442885099501695e-02  -5.0726558664978980e-02  7.6401065336135074e-03  1.0123549117110485e-02  0.0000000000000000e+00  -6.0291006103644993e-03  -9.5311475490304377e-03  -1.0649592313863801e-01  6.7814402993312095e-02  2.2221630826982197e-02  -5.4175954192524807e-02  1.0283286413168059e-01  6.0304851675603982e-02  -1.4762906506692941e-01  1.9488689984802526e-01  -1.7495139577517665e-01  -5.8544364317990871e-02  3.2625297318080719e-02  -7.5214752742520027e-02  -2.0177382325006384e-02  2.0991280968007051e-02  3.5160489748169425e-02  -1.4096712144162055e-01  -1.6925387434727024e-01  6.0262551683748646e-02  1.4469633206252264e-01  3.9525381238875695e-02  5.1206912444560241e-03  -2.8377965835200431e-02  1.5899066906995954e-01  -5.4583719828386813e-02  -1.1469661761147151e-01  -1.7451793487342676e-01  -1.4003637238684405e-01  3.9148882961045482e-02  -1.8875219431824321e-02  2.3934891355573262e-02  1.3218647787101862e-01  2.4461873197723253e-02  -1.3606100359794922e-02  -3.4333131022941499e-02  -4.4473959775533776e-02  -4.5675569869284165e-02  -2.3761818537638976e-02  -4.7403242707841194e-02  1.0026759751752870e-01  9.5504536635987444e-02  8.6741597668486603e-02  4.5059775553943554e-02  1.6275737593271405e-01  3.3421727770086826e-02  -9.5455418210645807e-02  -1.4023081684757141e-01  8.0905342642773992e-02  4.8510481325176165e-02  -3.4779729062285894e-02  4.1357428371260677e-02  2.6577977278532710e-02  3.4820807111921002e-02  -7.5671843477797623e-02  -6.9072734460727007e-03  1.0215207259551888e-01  7.4705902642750566e-02  -1.0955490175392524e-01  1.9509988948334947e-01  -1.6573769988501377e-01  6.5018606971705445e-02  7.2587881956424641e-02  -3.0338958558282940e-02  -8.9032348729996505e-02  -1.1307962891386687e-01  -2.7109773798904280e-02  -7.9570802177833688e-02  -1.1496870092533672e-01  -6.2490615431994578e-02  -3.6672800746466866e-02  3.1680326576771188e-02  -2.5046721417445659e-02  -2.1710804926203222e-02  8.7674935777990737e-02  -7.2270130344188901e-02  -6.5833528476565262e-02  -4.1500229224281031e-02  8.5115938370067284e-02  3.2604068760551025e-02  -3.4740982005828550e-02  1.4489855452508346e-01  1.1139417833060737e-01  1.8426524717335191e-01  -1.9650585614512966e-01  5.0306059588746836e-02  1.3540609602590895e-01  -9.2160574180833607e-02  -1.5641159219177053e-01  4.2683418601668931e-02  -7.1424900452637191e-02  6.4386867211192911e-02  4.3713395701154657e-02  -2.0498638915528800e-03  -6.3519292381756548e-02  -1.0997613761273786e-01  1.6941844001572604e-02  2.8639828382551708e-02  2.4026148704945932e-02  5.2123337091062212e-02  0.0000000000000000e+00  2.0792891192102890e-02  0.0000000000000000e+00  2.0876518573561542e-02  2.8072997511834369e-02  -7.3280753799166404e-02  6.5062684598303125e-02  -5.8619829974275992e-02  -3.7185087180213197e-02  -4.5743943463708893e-03  -6.0787212880487003e-02  8.5170562943824996e-02  1.1811097713904048e-01  9.8816873652169141e-03  -2.2496050739523630e-02  -3.4213393859456778e-02  -1.6785521784862645e-02  -1.5040072968230156e-02  2.0744798886892436e-02  4.9893977983486250e-02  -2.5824460922481380e-02  -1.1959201053575480e-03  2.4848317271935538e-02  1.7193830233958721e-02  3.5729369539048678e-02  4.1125400448892208e-02  3.5839320720165567e-02  3.7137605567613696e-02  3.1526927269654746e-02  -1.6734123934333586e-02  -3.4561392009789041e-02  1.5074735553572169e-01  -7.2025294336542159e-02  -1.1285