<?xml version="1.0"?>
<VTKFile type="UnstructuredGrid"  version="0.1"  >
<UnstructuredGrid>
<Piece  NumberOfPoints="2577" NumberOfCells="4963">
<Points>
<DataArray  type="Float64"  NumberOfComponents="3"  format="ascii">-0.4987820251299121 0.03487823687206276 0  -0.4987820251299122 -0.03487823687206242 0  -0.4890738003669028 -0.1039558454088795 0  -0.4698463103929542 -0.1710100716628343 0  -0.4414737964294634 -0.2347357813929454 0  -0.4045084971874738 -0.2938926261462365 0  -0.3596699001693255 -0.3473291852294987 0  -0.307830737662829 -0.3940053768033611 0  -0.2500000000000002 -0.4330127018922192 0  -0.1873032967079561 -0.4635919272833937 0  -0.1209609477998339 -0.4851478631379982 0  -0.05226423163382668 -0.4972609476841367 0  0.01744974835125064 -0.4996954135095479 0  0.08682408883346499 -0.4924038765061041 0  0.1545084971874736 -0.4755282581475768 0  0.2191855733945387 -0.4493970231495835 0  0.2795964517353731 -0.414518786277521 0  0.3345653031794289 -0.3715724127386973 0  0.3830222215594889 -0.3213938048432698 0  0.4240240480782127 -0.2649596321166029 0  0.4567727288213005 -0.2033683215379001 0  0.4806308479691593 -0.1378186779084999 0  0.4951340343707851 -0.06958655048003294 0  0.5 0 0  0.4951340343707852 0.06958655048003272 0  0.4806308479691594 0.1378186779084996 0  0.4567727288213004 0.2033683215379001 0  0.424024048078213 0.2649596321166025 0  0.383022221559489 0.3213938048432696 0  0.3345653031794291 0.3715724127386971 0  0.2795964517353734 0.4145187862775209 0  0.2191855733945387 0.4493970231495835 0  0.1545084971874737 0.4755282581475768 0  0.08682408883346521 0.492403876506104 0  0.01744974835125054 0.4996954135095479 0  -0.05226423163382667 0.4972609476841367 0  -0.1209609477998339 0.4851478631379982 0  -0.187303296707956 0.4635919272833937 0  -0.2499999999999999 0.4330127018922194 0  -0.3078307376628291 0.394005376803361 0  -0.3596699001693256 0.3473291852294986 0  -0.4045084971874737 0.2938926261462366 0  -0.4414737964294634 0.2347357813929455 0  -0.4698463103929542 0.1710100716628344 0  -0.4890738003669028 0.1039558454088797 0  1 0 0  0.9975640502598242 0.0697564737441253 0  0.9902680687415704 0.1391731009600654 0  0.9781476007338057 0.2079116908177593 0  0.9612616959383189 0.2756373558169992 0  0.9396926207859084 0.3420201433256687 0  0.9135454576426009 0.4067366430758002 0  0.882947592858927 0.4694715627858908 0  0.848048096156426 0.5299192642332049 0  0.8090169943749475 0.5877852522924731 0  0.766044443118978 0.6427876096865393 0  0.7193398003386512 0.6946583704589973 0  0.6691306063588582 0.7431448254773941 0  0.6156614753256583 0.788010753606722 0  0.5591929034707468 0.8290375725550417 0  0.5000000000000001 0.8660254037844386 0  0.4383711467890775 0.898794046299167 0  0.374606593415912 0.9271838545667874 0  0.3090169943749475 0.9510565162951535 0  0.2419218955996679 0.9702957262759965 0  0.1736481776669304 0.984807753012208 0  0.1045284632676535 0.9945218953682733 0  0.03489949670250108 0.9993908270190958 0  -0.03489949670250073 0.9993908270190958 0  -0.1045284632676533 0.9945218953682734 0  -0.1736481776669303 0.984807753012208 0  -0.2419218955996678 0.9702957262759965 0  -0.3090169943749473 0.9510565162951536 0  -0.3746065934159121 0.9271838545667874 0  -0.4383711467890775 0.8987940462991669 0  -0.4999999999999998 0.8660254037844387 0  -0.5591929034707467 0.8290375725550417 0  -0.6156614753256583 0.788010753606722 0  -0.6691306063588582 0.7431448254773942 0  -0.7193398003386512 0.6946583704589971 0  -0.7660444431189779 0.6427876096865395 0  -0.8090169943749473 0.5877852522924732 0  -0.848048096156426 0.5299192642332049 0  -0.8829475928589268 0.4694715627858911 0  -0.9135454576426008 0.4067366430758004 0  -0.9396926207859083 0.3420201433256689 0  -0.9612616959383187 0.2756373558169997 0  -0.9781476007338057 0.2079116908177593 0  -0.9902680687415703 0.1391731009600657 0  -0.9975640502598242 0.06975647374412552 0  -1 1.224646799147353e-16 0  -0.9975640502598243 -0.06975647374412483 0  -0.9902680687415703 -0.1391731009600655 0  -0.9781476007338057 -0.2079116908177591 0  -0.9612616959383189 -0.275637355816999 0  -0.9396926207859084 -0.3420201433256687 0  -0.9135454576426011 -0.4067366430757998 0  -0.8829475928589269 -0.4694715627858909 0  -0.8480480961564261 -0.5299192642332048 0  -0.8090169943749476 -0.587785252292473 0  -0.766044443118978 -0.6427876096865393 0  -0.7193398003386511 -0.6946583704589974 0  -0.6691306063588585 -0.743144825477394 0  -0.6156614753256581 -0.7880107536067221 0  -0.5591929034707472 -0.8290375725550414 0  -0.5000000000000004 -0.8660254037844384 0  -0.4383711467890777 -0.8987940462991668 0  -0.3746065934159123 -0.9271838545667873 0  -0.3090169943749476 -0.9510565162951535 0  -0.2419218955996678 -0.9702957262759965 0  -0.1736481776669303 -0.984807753012208 0  -0.1045284632676534 -0.9945218953682734 0  -0.03489949670250165 -0.9993908270190957 0  0.03489949670250128 -0.9993908270190958 0  0.104528463267653 -0.9945218953682734 0  0.17364817766693 -0.9848077530122081 0  0.2419218955996675 -0.9702957262759966 0  0.3090169943749472 -0.9510565162951536 0  0.374606593415912 -0.9271838545667874 0  0.4383711467890774 -0.898794046299167 0  0.5000000000000001 -0.8660254037844386 0  0.5591929034707462 -0.8290375725550421 0  0.6156614753256585 -0.7880107536067218 0  0.6691306063588578 -0.7431448254773946 0  0.7193398003386509 -0.6946583704589976 0  0.7660444431189778 -0.6427876096865396 0  0.8090169943749473 -0.5877852522924734 0  0.8480480961564254 -0.5299192642332058 0  0.8829475928589269 -0.4694715627858908 0  0.913545457642601 -0.4067366430758002 0  0.9396926207859084 -0.3420201433256686 0  0.9612616959383187 -0.2756373558169998 0  0.9781476007338056 -0.2079116908177599 0  0.9902680687415703 -0.1391731009600659 0  0.9975640502598243 -0.06975647374412476 0  -1.1 1.1 0  -1.1 -1.1 0  1.1 -1.1 0  1.1 1.1 0  1.1 0 0  0 1.1 0  -1.1 0 0  0 -1.1 0  1.1 0.55 0  1.1 -0.55 0  -0.55 1.1 0  0.55 1.1 0  -1.1 -0.55 0  -1.1 0.55 0  0.55 -1.1 0  -0.55 -1.1 0  1.1 0.275 0  1.1 -0.275 0  -0.275 1.1 0  0.275 1.1 0  -1.1 -0.275 0  -1.1 0.275 0  0.275 -1.1 0  -0.275 -1.1 0  1.1 0.1375 0  1.1 -0.1375 0  -0.1375 1.1 0  0.1375 1.1 0  -1.1 -0.1375 0  -1.1 0.1375 0  0.1375 -1.1 0  -0.1375 -1.1 0  5.551115123125783e-17 -1.665334536937735e-16 0  -0.8250000000000001 -1.1 0  -0.8250000000000001 1.1 0  0.8250000000000001 1.1 0  0.8250000000000001 -1.1 0  -1.1 -0.8250000000000001 0  1.1 0.8250000000000001 0  1.1 -0.8250000000000001 0  -1.1 0.8250000000000001 0  0.5913683108017449 -0.4620275612009603 0  0.649914963473963 0.3752285791120578 0  0.4606240494606415 0.5895718976940387 0  0.181000513545807 -0.72595340868972 0  -0.5213113466312544 0.5398337023596473 0  -0.748177477268642 3.677613769070831e-16 0  -0.6834941358692682 -0.3043111955291684 0  -0.4823845629070328 -0.574883535856444 0  0.7463460753897364 -0.07844413349737717 0  0.1810005135458073 0.7259534086897199 0  -0.2311995552845864 0.7115590651016113 0  -0.6834941358692682 0.3043111955291685 0  -0.2566714648155866 -0.7051990537991649 0  -0.1676911387756446 0.1862398773501902 0  0.09388033613439234 0.2323619857605368 0  0.25 0.01748170298587768 0  -0.1919787613936808 -0.1610893078793085 0  0.1253052372601464 -0.2170350373890467 0  0.4100151197949826 -0.6310439038757515 0  0.7462612140915066 0.1586227177749866 0  -0.04055708751545835 -0.7729701257972625 0  -0.8714499137803688 0.8714499137803687 0  0.8475624786996654 0.8776766395249775 0  -0.8475624786996656 -0.8776766395249775 0  0.8475624786996647 -0.8776766395249778 0  0.6549247837405074 -0.2646067885805835 0  -0.02452403903941524 0.7022765934528045 0  -0.6971570973421019 0.9595544245098317 0  0.9457715379788133 0.7171099473715343 0  -1.1 0.6875 0  -0.9457715379788133 -0.7171099473715342 0  0.945771537978813 -0.7171099473715348 0  -0.6875 -1.1 0  0.6875 1.1 0  0.6875 -1.1 0  -0.3021034145256841 0.04245786604388235 0  -0.05297525897811498 -0.3004376231321225 0  -0.6493495559083107 -0.4889583914999844 0  -0.4184043150681578 0.6969024203637967 0  1.1 -0.9625000000000001 0  1.1 0.9625000000000001 0  -0.9625000000000001 -1.1 0  0.2887013349030826 -0.1535052227012283 0  -0.056778523551556 0.3220070083626767 0  0.2645279155006937 0.1921907804558624 0  -0.9625000000000001 1.1 0  0.6922516407240482 -0.9346405102034137 0  0.6809472320731365 0.9372434590203537 0  -0.6809472320731367 -0.9372434590203537 0  0.06398867824008851 0.8378070690880577 0  -0.1172078581063797 0.8339772447956406 0  -0.5066579812390133 -0.4168691543844079 0  -0.3616253213577449 0.5474571478967749 0  -0.8028623003113451 -0.1706536500486641 0  -0.6435813133346415 -0.1485334625034662 0  0.3598144769124489 0.7377290042694387 0  0.2791822551364582 0.5985953263881472 0  -0.6535024333571912 0.1389062302773976 0  -0.8110749424437763 0.1957563045411092 0  -0.6949649763371784 0.4687597954466224 0  0.6229628706227364 0.560918288156104 0  -0.9297411857248856 0.7099174590703911 0  0.9625000000000001 1.1 0  0.9625000000000001 -1.1 0  -1.1 -0.9625000000000001 0  -1.1 0.9625000000000001 0  0.7388223103480156 -0.4005571441608962 0  0.8083621931560332 -0.2626527982464245 0  -0.155403738656764 -0.009737379389236772 0  -0.03944258252365207 -0.1479345038122513 0  -0.1124826985140496 -0.6379210831042694 0  0.3343324134502086 -0.7721815783645656 0  0.6086499783436645 0.2271435919934762 0  0.6451580408601226 0.04511384499706936 0  0.5687769439189224 -0.6195906411664603 0  -0.4001602488812527 -0.7525919704505459 0  0.8457217097464697 0.0401248801850398 0  0.7889254854389035 0.307330107167108 0  0.4993777703025682 0.4330411172771549 0  -0.5409883622077387 0.3797819883575305 0  -0.1783153826881871 -0.8337981003274648 0  0.04893952783735875 -0.6491733978417491 0  0.09057598678368259 -0.8453775254020186 0  0.2396424741704135 -0.593135937339345 0  -0.3077981704318665 0.1923336432766373 0  -0.33157036934951 -0.1476246396327481 0  -0.1945783708747696 -0.3026864137415663 0  0.07931900866494118 -0.3509819116997642 0  -1.1 -0.6875 0  -1.1 -0.4125 0  1.1 0.4125 0  1.1 -0.4125 
[...]
<PointData  Scalars="f_60"> 
<DataArray  type="Float64"  Name="f_60"  format="ascii">-1.7354566400233387e-01  -1.8271412756307442e-01  -1.9067176967086491e-01  -1.9488661723626211e-01  -1.9352344713187256e-01  -1.8561035771654261e-01  -1.6904208361984732e-01  -1.4314939700431328e-01  -1.1192161775762081e-01  -7.5142299219806738e-02  -3.9188513848155020e-02  -5.1897598444476381e-03  2.5215606394734684e-02  5.0845498610823013e-02  7.2047788934389831e-02  8.9807531508937360e-02  1.0433552191478929e-01  1.1681732655633759e-01  1.2794166438598797e-01  1.3827357972071824e-01  1.4823686487522422e-01  1.5823866932131161e-01  1.6826773319606217e-01  1.7827173810596625e-01  1.8694197814791805e-01  1.9315535264837108e-01  1.9492440562667640e-01  1.9104933228186766e-01  1.7870260598473134e-01  1.5733276045735561e-01  1.2846789122634952e-01  9.3767791756323160e-02  5.6538981623950137e-02  2.1016211937686810e-02  -1.1101746198684301e-02  -3.9195249244401549e-02  -6.2536994161184911e-02  -8.1891916904471937e-02  -9.7857849710779821e-02  -1.1123525711129040e-01  -1.2289192136588624e-01  -1.3354666271021284e-01  -1.4360526756648526e-01  -1.5354751349255091e-01  -1.6343057099516534e-01  2.4602017841260423e-02  2.5260045464448100e-02  2.6536373351431879e-02  2.8109270449081659e-02  3.0043219857782761e-02  3.1919047804172970e-02  3.3489208384326501e-02  3.4564460185272615e-02  3.4722393649846736e-02  3.3953677499160125e-02  3.2145639165669801e-02  2.9195609319037245e-02  2.5208776966216876e-02  2.0877779821688511e-02  1.7328487141547770e-02  1.5238690549760148e-02  1.3898236824398062e-02  1.2668241451641733e-02  1.1010799085172591e-02  8.7716495336655296e-03  5.9605858270575813e-03  3.0985650249304871e-03  3.1231153239195318e-04  -2.4299585524892513e-03  -5.0832603024096442e-03  -8.0094244177160937e-03  -1.1424959527889664e-02  -1.4556676548956102e-02  -1.7429011608926456e-02  -2.0118680777994034e-02  -2.2735341167274464e-02  -2.5095816979428354e-02  -2.7137537961979288e-02  -2.8778461318353540e-02  -2.9952412328042795e-02  -3.0702957541109663e-02  -3.0960870216917760e-02  -3.0791574196454185e-02  -3.0242297334798753e-02  -2.9366867784323160e-02  -2.8254762816082683e-02  -2.7072488823317007e-02  -2.5952834905654813e-02  -2.5052608358396150e-02  -2.4558886927484869e-02  -2.4638932643421617e-02  -2.5296648115237522e-02  -2.6539683521008234e-02  -2.8166400165043983e-02  -3.0080654618436547e-02  -3.1889685893672561e-02  -3.3491843798437490e-02  -3.4563969581480752e-02  -3.4771719541356341e-02  -3.3904161746560725e-02  -3.2121534267506649e-02  -2.9138920213708380e-02  -2.5169659345473976e-02  -2.0963882862943966e-02  -1.7327424599068535e-02  -1.5031813040771206e-02  -1.3668271245456295e-02  -1.2420442238550759e-02  -1.0547548145310394e-02  -8.3594239036377527e-03  -6.0275696742430268e-03  -3.4648796297491961e-03  -9.7620313866535668e-04  1.6866745125182429e-03  4.5909052613214924e-03  7.3955302716630046e-03  1.0223666512173392e-02  1.3249871685221154e-02  1.6260567668193809e-02  1.9284377904626525e-02  2.2104990308786852e-02  2.4606602702903404e-02  2.6784589371302406e-02  2.8471023819520946e-02  2.9659616931105075e-02  3.0466366163907382e-02  3.0795034463874438e-02  3.0680766589146785e-02  3.0107893277122637e-02  2.9303696037261188e-02  2.8171449674993927e-02  2.7043278863647300e-02  2.5892062738223618e-02  2.5007821543214688e-02  2.4543387005739558e-02  0.0000000000000000e+00  0.0000000000000000e+00  0.0000000000000000e+00  0.0000000000000000e+00  0.0000000000000000e+00  -3.6365494775215858e-04  0.0000000000000000e+00  -3.6365494775215858e-04  0.0000000000000000e+00  0.0000000000000000e+00  -7.8021222813898783e-03  7.8773001766307364e-03  0.0000000000000000e+00  0.0000000000000000e+00  7.8773001766307364e-03  -7.8021222813898783e-03  0.0000000000000000e+00  0.0000000000000000e+00  -5.8046766179313683e-03  5.8388378883634587e-03  0.0000000000000000e+00  0.0000000000000000e+00  5.8388378883634587e-03  -5.8046766179313683e-03  0.0000000000000000e+00  0.0000000000000000e+00  -3.3925408311729671e-03  3.1872896011640502e-03  0.0000000000000000e+00  0.0000000000000000e+00  3.1872896011640502e-03  -3.3925408311729671e-03  -1.4599699384333813e-03  -5.3517231695484778e-03  -5.3517231695484778e-03  4.8870332504310264e-03  4.8870332504310264e-03  0.0000000000000000e+00  0.0000000000000000e+00  0.0000000000000000e+00  0.0000000000000000e+00  5.8886132213015800e-02  9.5607506496564909e-02  8.6345486897825285e-02  2.3845965904738968e-02  -5.4206982377844805e-02  -7.8425344680972855e-02  -9.3884878392477500e-02  -8.8815825945513446e-02  7.4238804831601141e-02  2.7321509382407180e-02  -2.9876933779083945e-02  -6.6377937576213075e-02  -4.2702354443471174e-02  -9.3842256602104018e-02  1.0757540334698312e-02  1.0590672171786789e-01  -7.8825432784147789e-02  8.7498057544033975e-02  4.4834621224244996e-02  8.2208599039826954e-02  -3.6530869538639725e-03  -1.1186840511206421e-02  1.1290643673916705e-02  -1.1266983528911208e-02  1.1795877800573815e-02  7.6627093113360426e-02  -7.0182524810011877e-03  -1.2606548818135147e-02  1.2742175771326412e-02  0.0000000000000000e+00  -1.2715201941244434e-02  1.2161389447494668e-02  -7.1710794226267725e-03  7.1501304002377945e-03  7.1501304002377945e-03  -1.2172535695816973e-01  1.6073123260287855e-02  -8.0634803213879586e-02  -3.6932298132800918e-02  0.0000000000000000e+00  0.0000000000000000e+00  -2.1339853875601117e-03  1.1616833607656030e-01  -6.5568895134931485e-02  1.1752699702999156e-01  -2.1339853875601117e-03  1.4014051070505507e-02  1.2223174617337743e-02  -1.2350829926215017e-02  4.4055478872015311e-03  -1.1827940914397126e-02  -1.2178038922819039e-01  -6.0858568330306201e-02  -6.6730080085559598e-02  -1.1590797711093899e-01  4.9235827808642878e-02  6.7401276093258605e-02  -9.3904286032941181e-02  -5.2647072537735679e-02  -4.7567759763933730e-02  7.4870968750007330e-02  -1.3770189025141079e-02  2.6357181052186120e-03  2.6357181052186120e-03  0.0000000000000000e+00  0.0000000000000000e+00  4.8450750980053831e-02  4.8832091909989515e-02  -6.7933696477443711e-02  1.8771223737178280e-02  -2.2915498405965965e-02  2.7207964135675521e-02  1.2470785512685884e-01  1.1381650397741892e-01  4.1449165076785817e-02  -4.9938903631374203e-02  5.5351678663775231e-02  6.5793326666668234e-02  1.1891361410837416e-01  -7.9388274399550804e-02  -1.6362638627034326e-02  1.3823080644871873e-02  8.7031119489546886e-03  4.8003746608524404e-02  -1.2013506038825839e-01  -1.4644135133615296e-01  -7.4228286948182273e-02  7.0018094823808316e-02  0.0000000000000000e+00  0.0000000000000000e+00  0.0000000000000000e+00  0.0000000000000000e+00  -7.1710794226267725e-03  -7.1465127022083659e-03  7.1494217251438664e-03  0.0000000000000000e+00  7.1494217251438664e-03  -7.1465127022083659e-03  0.0000000000000000e+00  0.0000000000000000e+00  7.0472436689357293e-02  -7.4482750050831048e-02  4.7521054248673795e-03  5.2988569594537615e-03  -4.3915395825893950e-03  6.9752964091485528e-02  -6.0181041293425150e-02  4.2361422861132890e-02  -3.7517496471379808e-02  -6.6876827251077922e-02  8.2898400152563844e-03  1.4319663049912368e-01  -1.0193922620560163e-01  1.0587130075645025e-01  -5.0933959588608531e-02  -5.9873821038160607e-02  6.1792948587471135e-02  -4.4614141645036069e-02  2.4797885966167804e-02  -2.2612664772991127e-02  8.8024720752283944e-02  -4.9946291287798969e-02  1.4740547948260487e-02  1.5740669741801924e-02  -1.4829150565021574e-02  -1.5729250979127710e-02  1.0528203812925498e-01  1.1094247784589976e-01  -3.2134867874290721e-02  -9.9354598180016254e-02  1.7316280753602361e-02  3.6583442440536296e-02  -1.3424556384596276e-01  -1.1792254867167017e-01  3.1332526085629753e-02  4.2140014449246400e-02  4.6249543051345779e-02  -1.1396523102319643e-01  6.5283212270827118e-02  5.7569238109696714e-03  -6.3909948938474487e-02  -4.0663680360698173e-02  -4.6610576412789428e-03  -7.8802063058547839e-02  -7.4693102041668413e-03  6.8641776069620700e-03  1.5156334033528693e-01  7.7581152836715142e-02  -4.9400440279936640e-02  -6.0741428699087170e-02  -1.8041674866685023e-02  -1.0904019330307907e-02  1.3140838524019057e-02  1.0615527084741122e-02  -1.3669339910821910e-02  5.3012845141022773e-02  -2.8253795818092706e-02  -6.7098260513374752e-02  -7.5591967479328604e-03  -7.1856961068473548e-03  1.3794489141427368e-01  -4.5634734608842233e-03  6.7281542542508593e-02  -1.9209941387387103e-02  1.8755103240929976e-02  1.9196917735401959e-02  -1.8215984730177118e-02  1.8686880732311690e-02  -1.0985093215660836e-01  -1.6800644858191487e-02  -8.6943055251389213e-03  1.6786865186819242e-02  7.1188317447614486e-03  -7.3058040636763105e-02  8.4101718762575571e-03  1.4867730661240336e-02  -1.4855698658194654e-02  -1.0315381924124307e-01  -7.0543968825705336e-02  -1.5322626670928399e-01  -1.3841135728992787e-01  -9.3105726638493341e-02  6.5465854714307006e-02  2.8336369591000004e-03  1.0793215500193390e-01  6.9232912957353232e-02  -1.2013349690668482e-01  -1.2665348805405376e-02  9.4134610708510331e-03  -1.9160993177379904e-02  -1.9578006539290205e-02  -2.7208065376372523e-02  -9.5253820090899187e-03  -1.1400062025618791e-02  1.1023760452493281e-02  3.8492287356238337e-02  9.0975572858413515e-03  8.0337673222004483e-02  1.2409625543927638e-02  1.1737743421032405e-02  -4.0066300048873640e-02  3.7487997292363566e-02  8.3499651713621267e-03  9.1074565377565961e-02  -6.2649862286572999e-04  6.1756348252012948e-02  -3.1285518285808910e-02  9.6503045715549962e-03  -1.3560128424117454e-02  -4.1953758155054430e-03  -1.4503671754900968e-03  1.4359370906629615e-03  -5.7010134786196730e-02  -2.7051507337888116e-02  -7.9019592416416123e-02  1.2341142182131984e-01  -3.4408141008001721e-02  1.3766488349927322e-01  5.1501946895150356e-02  -4.6846507867378699e-02  3.1769284894049947e-02  4.7873065448820480e-02  -1.9023316503467943e-02  -7.8522988299283298e-03  -3.6041606945580859e-03  -5.1414463070307429e-03  -1.1003301972130973e-03  1.4175048926414610e-01  5.4731779156309404e-02  2.2095639020066192e-02  1.9591646014226676e-02  1.0453010866753801e-02  0.0000000000000000e+00  -2.1592587460609297e-02  0.0000000000000000e+00  0.0000000000000000e+00  -3.9341718574896802e-02  6.0173144965899934e-02  -3.9189625344062284e-02  -8.7198487300143859e-02  -4.5637701356000634e-02  8.6939079005166842e-02  -5.2232614723212237e-02  5.6359661600362709e-02  5.1263594692469598e-02  0.0000000000000000e+00  5.7086605466495043e-03  -2.9468545967441190e-03  -1.5389297693607558e-02  -5.0822255940182810e-02  1.3431477947578341e-01  -1.4273494571442594e-01  -1.0173020606845072e-03  -1.0326881835748869e-01  8.4816562423866204e-02  6.5720288886247482e-03  8.9459742480073046e-03  -1.1063569090967845e-02  -7.9447229653833180e-03  -4.1749686578290479e-02  0.0000000000000000e+00  -8.6917259421915687e-03  8.3049560682624639e-03  9.2799403400315991e-02  9.5156790994490759e-02  -7.2068556452689711e-02  -7.9614101508121662e-02  4.6538091819367272e-02  6.7398151422878430e-02  -3.1884721533807434e-02  -4.6263601518789860e-02  1.2860146430004826e-01  3.8664349465956607e-02  0.0000000000000000e+00  -6.3018798456599218e-02  9.4786578710271227e-02  -9.2169819717053594e-03  -2.1823238843560251e-02  -1.2161627339783173e-02  1.6286251196488200e-01  7.5286514619611986e-02  1.3779652988514099e-01  -1.0575555821335890e-01  0.0000000000000000e+00  1.1705317840271044e-01  -2.9196338289327762e-02  -8.8917773585469997e-02  6.8209087228338960e-02  4.4952274532357082e-02  6.6979725837554016e-02  -1.4546142663716383e-01  1.4080732575417984e-02  0.0000000000000000e+00  -1.5656933343400310e-02  1.5656280851775645e-02  3.2998756669837530e-02  3.6794425346262698e-02  3.8233372436324867e-02  1.1802543386273354e-02  6.3237045335895262e-02  -7.5634381462156711e-03  -3.0386814186296046e-02  9.7634967273464730e-03  9.7758815835733037e-02  -1.8480084908830019e-02  8.5688747811867860e-02  -3.9318638924179694e-02  9.4082745974084614e-02  1.2270218650730585e-02  1.8049198345535523e-02  -6.7127708727606674e-03  3.7992300590359136e-02  2.1716141449100905e-03  1.0791821614574997e-01  1.1390897971568668e-02  -8.3471631666425877e-02  -1.2623016094942491e-01  -1.2761451727281464e-01  1.9079559975909523e-02  4.0042870445804735e-02  -5.7599552094315193e-02  -1.9917993798548608e-02  -5.3190455635594859e-02  5.3881672335584295e-02  4.6334732259496303e-02  -4.1656510670080575e-02  -4.8773685693384736e-02  -8.3846974358337319e-03  8.4049605540086215e-03  -3.8016486531718081e-02  1.3485514567897112e-02  2.5559970302521436e-03  1.2063564344409226e-02  2.4985106878375313e-02  -1.6467905978138378e-01  -1.6300408626657412e-01  -1.2163383790864442e-01  -1.2722960744490475e-02  -1.5892356075816579e-02  1.6511905373436216e-02  -1.3879385047766507e-01  -1.4886951751290084e-01  -8.0208783593610070e-02  7.5258239136345023e-02  1.0733853433131999e-02  -3.7492788896828201e-02  1.4486531177716490e-02  8.7113062177863899e-03  -3.6516958112397680e-03  1.0823782802767112e-01  -6.5047514913536650e-02  -7.0024187075319239e-02  3.9562631125785570e-02  -9.0301052419906533e-03  9.0960635888397715e-02  -9.9351265648511683e-03  -8.9157937292711112e-02  -1.1323099906742920e-01  9.7997594124840964e-02  -7.1025523692383657e-02  8.8053200306879853e-03  -7.5846997353312563e-03  -1.4323845091274766e-02  3.4932007752074432e-02  2.8427749777259332e-02  -1.2084148474795041e-01  -1.3768592096776569e-01  9.2110223256852156e-02  7.1560290041434216e-02  3.3673314310780841e-02  -1.0411534557034829e-01  -1.0040687945228455e-01  -4.6993011936371849e-02  -6.1145983350853500e-02  -6.6597407692043267e-02  5.2396559222489092e-02  5.9774924711625863e-02  -6.0468701992690971e-03  4.8305772992838482e-02  3.9819384591934334e-02  3.4178642473078953e-02  5.8728508308742685e-03  -6.9053127774488743e-02  -3.1297421707577383e-03  -1.2363044170372796e-02  -9.2180799783647988e-02  6.4541910275449255e-02  1.0506111556881752e-01  -2.7092063602212571e-02  -1.2315904870715041e-02  7.0954004110632449e-02  -3.4461832331068483e-02  -1.1151165649118684e-01  1.5742243275817014e-01  4.2646329206241949e-03  -6.7002532232550696e-03  -9.8878261008310639e-02  -3.8340867335621531e-02  9.3535135415267966e-05  1.6344275503712125e-01  6.0468965499091906e-02  6.3654539879848940e-02  -5.2378788495480756e-02  -1.6308678664975637e-02  3.4818156274727405e-03  8.3601407289357083e-02  6.1143225560118322e-02  -9.2496226210155477e-02  -7.8408497823295634e-02  1.0695350188399132e-01  1.6392529425052267e-02  -9.3539713555871561e-03  -2.8878430246481127e-02  -4.6419493543430196e-02  1.0149263129514931e-01  0.0000000000000000e+00  1.1550995200525849e-01  -1.1047461624128983e-01  4.6461163628594461e-03  -4.8061411423960722e-03  -4.8061411423960722e-03  4.6461163628594461e-03  2.8613981077150200e-02  7.8029848529371625e-03  -5.0854580984628923e-02  1.1317663755874176e-01  7.4235879095437982e-02  5.5868748506216835e-02  7.9667449451430901e-03  -9.7877221377273334e-03  2.4660554517588053e-02  2.4589140849862880e-02  5.4718694525366936e-02  -3.9290144927365198e-03  -4.2684073827260974e-03  4.1988726724000662e-02  1.4605727883983408e-01  -1.9512130309340337e-02  1.5494690247022552e-02  -1.0037982872687190e-01  -5.3973573639771996e-02  -8.8489873525745954e-03  -8.1896715979691045e-02  -2.2781097306834482e-02  5.1095813178279638e-02  -1.0759559386666045e-02  -2.7228590101933028e-02  -1.1319831777320996e-01  6.6277289092616836e-03  1.5458704558653433e-02  2.5660573474441026e-03  -2.1083442099573283e-03  1.5229675012363830e-01  8.7400957996785864e-02  7.8118974760981841e-02  3.7498594531590532e-02  -6.1040861082067778e-02  0.0000000000000000e+00  1.2798898855592706e-02  1.9511861198215248e-02  -1.4034482479011973e-02  -3.3193709292864006e-02  -7.5405802279954132e-03  3.7025627268252058e-02  -5.3135197615464418e-02  6.7236261011658707e-02  3.4610494316278079e-02  2.2495700534531819e-02  2.2717515928959636e-02  -2.2723520552172066e-02  -1.1929408666006626e-02  2.0623557659218996e-02  -1.8971897468895559e-02  -7.1866781424649653e-02  5.1452646606544972e-02  1.4868683103831446e-02  -1.7546591741287537e-03  1.0243351966631167e-03  1.0243351966631167e-03  -1.7546591741287537e-03  2.1536730852760404e-02  -2.1926931250775758e-02  -2.2174553877600391e-02  6.2232572225844980e-03  -1.6506213568094397e-02  4.8123604377381758e-02  9.7242045204417576e-03  -7.6607399470807911e-03  -8.8001878085523962e-03  -7.4074782336103276e-02  0.0000000000000000e+00  1.1153374408340566e-03  1.2590161151685009e-01  -7.7201760047307541e-02  4.4261481408846906e-02  6.5150426494122823e-02  6.1506087532216397e-02  1.4246014850917183e-02  -1.4248224613978299e-02  0.0000000000000000e+00  0.0000000000000000e+00  0.0000000000000000e+00  0.0000000000000000e+00  0.0000000000000000e+00  0.0000000000000000e+00  -1.3176411460591425e-01  -1.7285515240749691e-01  -1.1673416844371858e-01  -7.3019004514464830e-02  -9.4848253747580422e-02  -6.8041788908190150e-03  7.8943788440784587e-03  -7.6903623287836783e-03  6.9946304040428512e-03  1.1300224958685359e-01  -1.3658687832215133e-02  -1.3858526072755032e-02  1.3649694923024104e-02  -7.8362969059039052e-03  2.3595794520123378e-02  -2.2187382124578322e-02  -6.8681345418600895e-02  1.3295956763328154e-01  8.5594270763815150e-02  5.6160798342712467e-02  -1.5442858032321941e-01  3.8497528779508810e-03  0.0000000000000000e+00  -6.7002532232550696e-03  -3.1297421707577383e-03  3.8497528779508810e-03  0.0000000000000000e+00  6.6277289092616836e-03  0.0000000000000000e+00  -6.5782948979492993e-03  7.7182492264701611e-03  6.5720288886247482e-03  0.0000000000000000e+00  0.0000000000000000e+00  -6.5782948979492993e-03  -7.6607399470807911e-03  0.0000000000000000e+00  0.0000000000000000e+00  0.0000000000000000e+00  0.0000000000000000e+00  0.0000000000000000e+00  0.0000000000000000e+00  7.7182492264701611e-03  0.0000000000000000e+00  7.6447884033553279e-03  -7.5634381462156711e-03  0.0000000000000000e+00  0.0000000000000000e+00  1.1153374408340566e-03  -1.1003301972130973e-03  0.0000000000000000e+00  7.6447884033553279e-03  5.5672153044689296e-02  3.5388442616006238e-02  -3.7021534039185240e-02  -8.0439201447886216e-02  1.6120363826382242e-01  1.2925531098780166e-01  8.4545701206988594e-02  3.2774372842632395e-03  7.4446424392462041e-03  2.4633979277754545e-03  7.1185521216993786e-02  8.8404671557146153e-02  8.8092124612380793e-03  7.9658936164753013e-03  -4.6698303850378556e-02  -2.2016632452615064e-03  -1.9076128128031063e-02  -1.8897266315098853e-02  -2.9160845607045995e-02  -5.2685702511114936e-02  8.7915275962851883e-02  -2.4399687589476086e-02  -1.4627139517558796e-01  5.9260092199770664e-03  -5.1455937258717051e-03  -7.1964792361102810e-03  -7.4520472418367293e-03  5.4468322473612135e-03  -8.1984819487270266e-02  -5.8823956233302784e-02  2.4366520987278210e-02  9.6181560229282124e-03  1.5391344384822958e-02  -9.6180217618484862e-03  -3.1276465837875168e-02  -4.4342227914059361e-02  2.1035207362492925e-02  1.4573257869470243e-02  -3.7419234368818992e-02  6.2471260148428756e-03  1.4168440720218166e-02  -1.5798751131203853e-02  -3.7644157220499495e-03  3.1970419225840194e-02  -2.4396013407379825e-02  -1.8907119530161939e-02  6.7642917769277283e-03  6.2597279636197947e-03  -6.3437994910930329e-02  -6.2817223360410748e-02  3.5643327362581939e-02  1.3554215010611978e-01  -5.6306540957919531e-02  1.5126031390859782e-01  1.1895142284859529e-01  -9.5170275868488557e-02  3.8052153161594555e-02  3.5707518260945210e-02  -4.8490114231826399e-02  -3.7954950145598507e-02  7.1483084928536098e-02  5.0312755964093507e-02  -7.5035129424538185e-03  2.0773799165312377e-02  -3.4684285922688927e-02  -1.0644937235879887e-01  -3.6189378536174953e-02  2.3259857174372199e-02  9.2439062661629923e-03  -1.1212142925757168e-01  1.0101893390300710e-01  -5.1073130107194442e-02  -6.4701115064931453e-02  -4.0561156006841091e-02  1.1393667769896426e-02  1.1274999113372691e-01  -2.4812534117172436e-02  4.7555044574048154e-02  -1.8752250274829400e-02  -3.6116982324918924e-02  5.1086479294649725e-02  -3.0