<?xml version="1.0"?>
<VTKFile type="UnstructuredGrid"  version="0.1"  >
<UnstructuredGrid>
<Piece  NumberOfPoints="1461" NumberOfCells="2789">
<Points>
<DataArray  type="Float64"  NumberOfComponents="3"  format="ascii">-0.5 6.123233995736766e-17 0  -0.4914865498419509 -0.09187475890828506 0  -0.466236114702178 -0.1806208330935763 0  -0.4251085678648071 -0.2632160814386779 0  -0.3695044586103295 -0.3368478218232786 0  -0.3013173181896286 -0.3990086136401195 0  -0.2228691778882694 -0.447581645677531 0  -0.1368314950360416 -0.4809128215864095 0  -0.04613417973165096 -0.4978670881475173 0  0.04613417973165122 -0.4978670881475172 0  0.1368314950360414 -0.4809128215864095 0  0.2228691778882688 -0.4475816456775313 0  0.3013173181896281 -0.3990086136401199 0  0.3695044586103293 -0.3368478218232789 0  0.4251085678648069 -0.2632160814386781 0  0.4662361147021779 -0.1806208330935765 0  0.4914865498419509 -0.09187475890828503 0  0.5 0 0  0.4914865498419509 0.09187475890828517 0  0.4662361147021779 0.1806208330935765 0  0.4251085678648071 0.2632160814386779 0  0.3695044586103295 0.3368478218232786 0  0.3013173181896282 0.3990086136401197 0  0.2228691778882692 0.4475816456775312 0  0.1368314950360415 0.4809128215864095 0  0.04613417973165101 0.4978670881475172 0  -0.04613417973165095 0.4978670881475173 0  -0.1368314950360414 0.4809128215864095 0  -0.2228691778882689 0.4475816456775313 0  -0.3013173181896281 0.3990086136401198 0  -0.3695044586103297 0.3368478218232785 0  -0.425108567864807 0.263216081438678 0  -0.4662361147021779 0.1806208330935767 0  -0.4914865498419509 0.09187475890828518 0  -0.9989008914857115 0.04687226246993986 0  -0.9989008914857115 -0.04687226246994006 0  -0.9901225145346509 -0.1402048722818856 0  -0.972642905324813 -0.2323053566349833 0  -0.9466156752904342 -0.3223643331611536 0  -0.912269552664897 -0.4095903603365061 0  -0.8699063724087903 -0.4932168926979072 0  -0.8198984236734248 -0.5725090172720717 0  -0.7626851781103823 -0.6467699120171984 0  -0.6987694277788414 -0.7153469695201277 0  -0.6287128665908849 -0.777637532133752 0  -0.5531311541252 -0.8330941881540912 0  -0.4726885051885656 -0.8812295824940283 0  -0.3880918526722498 -0.9216206995773374 0  -0.3000846350003406 -0.953912580814779 0  -0.2094402627661449 -0.977821443992945 0  -0.1169553219720827 -0.9931371771625541 0  -0.02344257360326047 -0.9997251851098159 0  0.07027618894529231 -0.9975275721840101 0  0.1633773618185306 -0.9865636510865464 0  0.2550427685616762 -0.9669297731502506 0  0.3444668502843321 -0.9387984816003867 0  0.4308637449409707 -0.9024169952385882 0  0.5134741935148417 -0.8581050358751444 0  0.5915722124135216 -0.8062520186022304 0  0.6644714734388218 -0.747313629600077 0  0.7315313352636686 -0.6818078215504381 0  0.7921624734111292 -0.6103102618497922 0  0.8458320592590973 -0.5334492736235703 0  0.8920684425573863 -0.4519003139999344 0  0.9304652963070865 -0.3663800381682465 0  0.9606851875768402 -0.2776400013875007 0  0.982462542875576 -0.1864600542916819 0  0.9956059820218981 -0.09364148953435038 0  1 0 0  0.9956059820218981 0.09364148953435077 0  0.9824625428755761 0.1864600542916812 0  0.9606851875768402 0.2776400013875006 0  0.9304652963070866 0.3663800381682462 0  0.8920684425573865 0.4519003139999338 0  0.8458320592590974 0.5334492736235703 0  0.7921624734111293 0.6103102618497921 0  0.731531335263669 0.6818078215504377 0  0.6644714734388217 0.7473136296000771 0  0.5915722124135224 0.8062520186022298 0  0.5134741935148421 0.8581050358751442 0  0.4308637449409705 0.9024169952385883 0  0.3444668502843328 0.9387984816003864 0  0.2550427685616765 0.9669297731502506 0  0.1633773618185302 0.9865636510865465 0  0.070276188945293 0.9975275721840101 0  -0.02344257360326044 0.9997251851098159 0  -0.1169553219720825 0.9931371771625542 0  -0.2094402627661442 0.9778214439929452 0  -0.3000846350003405 0.953912580814779 0  -0.3880918526722498 0.9216206995773374 0  -0.472688505188565 0.8812295824940286 0  -0.5531311541251994 0.8330941881540915 0  -0.6287128665908847 0.7776375321337522 0  -0.6987694277788417 0.7153469695201276 0  -0.7626851781103822 0.6467699120171985 0  -0.8198984236734244 0.5725090172720723 0  -0.8699063724087902 0.4932168926979075 0  -0.9122695526648968 0.4095903603365063 0  -0.9466156752904341 0.3223643331611538 0  -0.972642905324813 0.2323053566349835 0  -0.9901225145346509 0.1402048722818858 0  -1.1 1.1 0  -1.1 -1.1 0  1.1 -1.1 0  1.1 1.1 0  -1.1 0 0  0 -1.1 0  1.1 0 0  0 1.1 0  -1.1 -0.55 0  -1.1 0.55 0  0.55 -1.1 0  -0.55 -1.1 0  1.1 0.55 0  1.1 -0.55 0  -0.55 1.1 0  0.55 1.1 0  -1.1 -0.275 0  -1.1 0.275 0  0.275 -1.1 0  -0.275 -1.1 0  1.1 0.275 0  1.1 -0.275 0  -0.275 1.1 0  0.275 1.1 0  -1.1 -0.1375 0  -1.1 0.1375 0  0.1375 -1.1 0  -0.1375 -1.1 0  1.1 0.1375 0  1.1 -0.1375 0  -0.1375 1.1 0  0.1375 1.1 0  5.551115123125783e-17 0 0  1.1 0.8250000000000001 0  1.1 -0.8250000000000001 0  -0.8250000000000001 1.1 0  -0.8250000000000001 -1.1 0  -1.1 -0.8250000000000001 0  -1.1 0.8250000000000001 0  0.8250000000000001 -1.1 0  0.8250000000000001 1.1 0  -0.7452577130899811 0.07009504121197063 0  -0.7196145554063145 -0.2047479939110959 0  -0.6695870000800466 0.3334147091903505 0  -0.5967944603467291 -0.4506782564455942 0  -0.5037216596475655 0.5525563387374935 0  -0.3935412594153844 -0.6355909573281985 0  -0.2582020584797643 0.7036952909889966 0  -0.1224874465599003 -0.7396475322243659 0  1.804112415015879e-16 0.7472231737812758 0  0.1372852503520671 -0.7344112228591781 0  0.2911232306082124 0.6913445711599195 0  0.3932371367102588 -0.6350997822946517 0  0.5243503582032214 0.5367899979536359 0  0.5960259246062833 -0.4500978851946297 0  0.6847673336854203 0.3074465196515291 0  0.7183173129809632 -0.2043788966183693 0  0.7449256117842845 0.06204953239509305 0  -0.20035900300458 0.1513040956928792 0  -0.1321718625838789 -0.2134648875097201 0  0.1321718625838787 0.2134648875097203 0  0.1691454556057493 -0.1855437261303996 0  0.8703274951181128 0.8703274951181128 0  0.8537727593964153 -0.8740275859440739 0  0.2685886721097267 0.02488840569699225 0  -0.884556435066475 -0.8244315273435519 0  -0.8845564350664752 0.8244315273435516 0  -0.700580064659332 0.9548184980149617 0  -0.7005800646593325 -0.9548184980149612 0  -0.2980337216678105 -0.02761689135282146 0  -0.0549981651260624 0.2942141970944399 0  1.1 0.6875 0  0.9496207616733379 -0.7125799064602014 0  0.6875 -1.1 0  0.6875 1.1 0  -0.9625000000000001 1.1 0  -0.9625000000000001 -1.1 0  -1.1 -0.6875 0  -1.1 0.6875 0  2.081668171172169e-17 -0.3286953126985109 0  1.1 -0.9625000000000001 0  1.1 0.9625000000000001 0  -0.4285642961523128 0.7162057711357145 0  -0.2922226613044432 -0.776727428568197 0  0.174838450714037 0.8162746937229515 0  0.4617849541950493 0.6955138191869427 0  0.6845471893646073 0.4779975510912708 0  -0.8314184002977903 -0.07656163071707678 0  -0.8042940643706591 0.2324426440997535 0  -0.7469659197661445 -0.372041484500847 0  0.9435817685496533 0.6588731670051087 0  -0.6655841780668343 0.5027264603142332 0  -0.5616418371471765 -0.6162017817942277 0  -0.1378524463486731 0.8324299723484344 0  0.009440324071048431 -0.8383040935568646 0  0.6340216813999336 0.9549268270259341 0  0.6984391415215117 -0.9338903439767606 0  0.300664440564191 -0.7759990472259422 0  -1.1 -0.9625000000000001 0  -1.1 0.9625000000000001 0  0.9625000000000001 -1.1 0  0.9625000000000001 1.1 0  0.8255078551297768 0.1971637233367384 0  0.5931718080586599 -0.60724416156603 0  -0.964569560729961 0.61875 0  -0.9412184400777328 -0.675629987878325 0  0.01451466883707512 -0.1566382224930387 0  0.7445359644808093 -0.3707185760986815 0  -0.6496807851562796 -0.05960531119440617 0  -0.62683574040104 0.1785965340391935 0  -0.5834686517324597 -0.2905328669998186 0  -0.3401882519444225 0.5618906080620845 0  -0.5202412644899305 0.3927183715284568 0  -0.230469700834483 -0.6158690166206668 0  -0.439029499146694 -0.4815924191466816 0  0.1315973236401685 0.6465309847524076 0  -0.04929612731897073 0.1430325247211223 0  -0.1510628756856091 0.008271570971756887 0  0.2352800706632638 -0.6074862080268114 0  0.4388143211162365 -0.4814151137709591 0  0.5830621392046128 -0.290354993318151 0  0.8297887356081327 -0.08096868143845029 0  0.3167546236327295 -0.1265860605627834 0  0.2881011466407613 0.1826342016868564 0  -0.282843184752632 -0.2135932583519227 0  0.6472529330662994 -0.06273876808302634 0  -0.1187431011919023 0.6352194859156121 0  0.005630703506639467 -0.6493092616611125 0  0.3384713093165277 0.5466499340785792 0  0.5118553673379518 0.3865352308568081 0  0.6283965164136763 0.1635550987092959 0  -0.953685798793846 0.953685798793846 0  -0.89375 -0.9706384268651818 0  -0.6875 -1.1 0  0.4125 1.1 0  -0.6875 1.1 0  -0.4125 1.1 0  1.1 -0.4125 0  1.1 0.4125 0  0.4125 -1.1 0  -1.1 -0.4125 0  -1.1 0.4125 0  -0.4125 -1.1 0  1.1 -0.6875 0  0.1394115791193248 -0.04277964460399492 0  -0.3393513283955167 0.1110600808589604 0  -0.1930047892342392 0.3117134374691744 0  0.07927492778061024 0.3481510469172536 0  -0.1324701263156022 -0.3472242494295533 0  0.1439189409798292 -0.3272419854446572 0  0.7177822238787621 -0.5012045196611741 0  0.4845413164728957 -0.7297881373406302 0  0.9613904516514835 -0.9613904516514835 0  0.1835716722752551 -0.8570478058500863 0  0.02055237236693077 0.8764705026293684 0  -0.4210725768174081 -0.7622904223554584 0  -0.5511921771358804 0.6734406073486252 0  -0.6740102264683963 -0.5535712372257735 0  0.1021660343973917 0.08439258971470157 0  -0.7641327511364048 0.4203531262950583 0  -0.8282932755708275 -0.2728623792913848 0  -0.9854957873544363 0.7452945109297571 0  0.9722945504877303 -0.5512686332562167 0  -0.8708679406104808 0.04525295152524858 0  -0.3364219313405007 0.8047457289663124 0  -0.1870734116895495 -0.8510277858141307 0  0.8301367040255592 -0.2719899423920239 0  0.3741394004917264 0.7881775306901468 0  -0.8270615207685887 0.938295111785177 0  -0.7558474866591318 0.8308882058467112 0  0.6370644222528364 0.5962644341027006 0  0.7792401357821636 0.3928441213091871 0  0.8701243835998034 0.07
[...]
<PointData  Scalars="f_60"> 
<DataArray  type="Float64"  Name="f_60"  format="ascii">-1.7766496187815220e-01  -1.8830191392444795e-01  -1.9455857154998221e-01  -1.8978542645185725e-01  -1.7273843487330950e-01  -1.3875572612555789e-01  -9.5919033909449364e-02  -4.8828148948058446e-02  -3.0741743389526969e-03  3.5946184857528513e-02  6.6472726337727314e-02  8.9929442968624818e-02  1.0924116656487431e-01  1.2475927458482937e-01  1.3863462085949055e-01  1.5155827343450012e-01  1.6520301966246789e-01  1.7831873508601370e-01  1.8868189341681602e-01  1.9432902925468737e-01  1.9014790971585635e-01  1.7183570527797670e-01  1.4062828870375887e-01  9.5800153107310437e-02  4.7053675559831219e-02  1.7179328348564356e-03  -3.6679833419559965e-02  -6.6701755528924878e-02  -9.0541804445419927e-02  -1.0918576797290645e-01  -1.2509769419840408e-01  -1.3826760499334806e-01  -1.5205310526602006e-01  -1.6497802943289419e-01  -2.4476370331424743e-02  -2.4878197032679687e-02  -2.6479549521597208e-02  -2.8675511242979075e-02  -3.1232546573270022e-02  -3.3240205348382783e-02  -3.4400501068889255e-02  -3.3995466377208974e-02  -3.1702842256642459e-02  -2.7403076309342727e-02  -2.1592437422300496e-02  -1.6996110656857459e-02  -1.4523550141747785e-02  -1.3210877708554811e-02  -1.0805501581468181e-02  -7.4810202822061843e-03  -3.9969061062496468e-03  -1.0165693937363800e-03  2.6093310174757143e-03  6.0579262118186736e-03  9.8406634323965850e-03  1.4098625748838363e-02  1.8369537849465184e-02  2.2188855004857119e-02  2.5277907931390935e-02  2.7786490568116558e-02  2.9485928828450827e-02  3.0341156308619277e-02  3.0354756677776613e-02  2.9707250715965732e-02  2.8413462778149209e-02  2.6881978313603387e-02  2.5424012301309310e-02  2.4551841821082672e-02  2.4547593001534432e-02  2.5515736148058285e-02  2.7438282158628747e-02  3.0005335843329546e-02  3.2316892801843036e-02  3.4018323901550560e-02  3.4367031181989950e-02  3.2990288541988128e-02  2.9779151789320044e-02  2.4151884219457419e-02  1.9094606782140432e-02  1.5446179015333274e-02  1.3278611837175490e-02  1.1057206643472867e-02  8.3911369736670016e-03  5.1697922371632685e-03  1.5165494303332706e-03  -2.0674273277112459e-03  -5.6357074516630978e-03  -9.1069439432076415e-03  -1.2776892446550394e-02  -1.7079220405008463e-02  -2.0995655961517708e-02  -2.4548844033392078e-02  -2.7397508473603959e-02  -2.9428253813401539e-02  -3.0507412366158743e-02  -3.0871775891370180e-02  -3.0466728158734215e-02  -2.9373353645211871e-02  -2.7845280276530441e-02  -2.6267613542914275e-02  -2.4949551926702902e-02  0.0000000000000000e+00  0.0000000000000000e+00  0.0000000000000000e+00  0.0000000000000000e+00  0.0000000000000000e+00  -7.4991247891179709e-04  0.0000000000000000e+00  -7.4991247891179709e-04  0.0000000000000000e+00  0.0000000000000000e+00  7.6243670983083822e-03  -7.8144444262346659e-03  0.0000000000000000e+00  0.0000000000000000e+00  -7.8144444262346659e-03  7.6243670983083822e-03  0.0000000000000000e+00  0.0000000000000000e+00  5.8119041656747123e-03  -6.0843384602915626e-03  0.0000000000000000e+00  0.0000000000000000e+00  -6.0843384602915626e-03  5.8119041656747123e-03  0.0000000000000000e+00  0.0000000000000000e+00  2.7631223671116209e-03  -3.3615865171307577e-03  0.0000000000000000e+00  0.0000000000000000e+00  -3.3615865171307577e-03  2.7631223671116209e-03  2.7381743755755988e-04  0.0000000000000000e+00  0.0000000000000000e+00  -5.4879456186971588e-03  -5.4879456186971588e-03  0.0000000000000000e+00  0.0000000000000000e+00  5.0453044961383921e-03  5.0453044961383921e-03  -7.5081530066001087e-02  -8.8745730356392993e-02  -6.5017228106149530e-02  -9.6883665364005236e-02  -5.3306795397185046e-02  -7.3711854216294850e-02  -3.1927450278818041e-02  -1.7390954922621268e-02  -2.4102236859628655e-03  1.8446577179881827e-02  4.9394499341935405e-02  4.3791620695087838e-02  9.2836239978051086e-02  5.9770657451925426e-02  9.2666635311977261e-02  7.0025724324559419e-02  8.1434553082638750e-02  -9.7423696901629997e-02  -3.7708871519967664e-02  3.7245194603499669e-02  9.3422293649234156e-02  1.0414724388116208e-02  1.1183902300291485e-02  1.1276955026119487e-01  -1.1821183145773699e-02  -1.2595401661493984e-02  -1.3224475470452074e-02  -1.0397910489610819e-02  -1.2431467398128669e-01  -6.6667410655641107e-02  0.0000000000000000e+00  1.1744181015885403e-02  6.8684820350995530e-03  6.8684820350995530e-03  -3.2705548496421116e-03  -3.2705548496421116e-03  0.0000000000000000e+00  0.0000000000000000e+00  4.1228783056395456e-02  0.0000000000000000e+00  0.0000000000000000e+00  -3.4498769314348650e-02  -3.5590850867603011e-02  1.7111293300890219e-02  6.4333765954916050e-02  7.4076740969976226e-02  -5.9192138096988103e-02  -5.1353683753159775e-02  -7.1211967133303161e-02  1.5242404410405667e-02  -4.6979322842210229e-02  -7.4223068069644557e-02  -1.3206520868140663e-02  1.5747312732348213e-03  1.1141438343002045e-02  1.2871786611061206e-02  2.5163708821219374e-02  0.0000000000000000e+00  0.0000000000000000e+00  2.5133737487479219e-03  2.5133737487479219e-03  6.0369991159080261e-02  4.1077591712501665e-02  -1.3814378713483816e-02  -1.4779233885149231e-02  5.0055809803573201e-02  5.0073128958710557e-02  -1.1229439936009780e-01  -9.5819860918262806e-02  -1.2519650942848567e-01  -5.7679941766267638e-02  -7.9793774424385983e-02  -5.3910868514881027e-02  -1.1247510104045122e-01  2.5949747215194760e-02  -6.2064243826341736e-02  -6.7457904574724725e-02  4.4230994252770904e-02  7.0125282859077126e-02  8.7562677377289427e-02  5.4839623298452371e-02  1.2154120627028929e-01  1.2873560525843147e-01  -1.2693817439812508e-01  1.0434197895128304e-01  -2.7552224746427996e-02  4.4714309696497765e-03  9.0021383911504993e-02  1.2687699312932688e-01  1.2057585152516356e-01  -5.7634458882908938e-03  -6.3092635053183061e-03  -6.9373322065891790e-03  7.4296278913813102e-03  -6.9373322065891790e-03  -7.4451051286120538e-03  0.0000000000000000e+00  0.0000000000000000e+00  7.4296278913813102e-03  0.0000000000000000e+00  0.0000000000000000e+00  -7.4451051286120538e-03  0.0000000000000000e+00  6.7313125774906626e-02  -1.2843874274200298e-01  -9.9505474773174798e-02  8.5144425812528300e-04  -3.4627519362389933e-02  8.8541745758604420e-02  4.2084762694814447e-02  3.2116780894616677e-02  4.5833609938271689e-03  1.3428465223088045e-02  -9.2543956880121632e-05  -4.9108552259376333e-02  -3.6875539631491192e-02  -6.6002755935149787e-02  3.1958364580490936e-02  -4.4105004580908519e-02  -5.7701430732886146e-02  -8.5651922555811059e-03  1.4970079638239068e-02  -4.7617186956074337e-02  -2.4580114291433815e-02  -1.5799412675690089e-02  4.4699366997394865e-02  3.9935255458755183e-02  -1.0728190952651396e-02  -1.8566445691024960e-02  6.6377280774367511e-02  6.1975415827009377e-02  5.0241101020843816e-02  -4.8769415413228243e-03  1.3729828806906735e-01  -1.1802385436180228e-01  9.6167077036822604e-02  1.1384261820259368e-01  1.4844694519706185e-02  8.2781127014869768e-03  -4.0638289032531765e-03  -8.9573922849924173e-02  6.8292741159647532e-03  -9.3250463735933251e-02  4.0215625880864322e-03  -7.6867715941443648e-02  1.2968215126801286e-02  -1.8756005186840414e-02  -1.3603577736211758e-01  -1.3707113364557993e-01  -1.3293184339726415e-02  -1.1300553583861095e-02  -1.6420154053553487e-02  6.6725257751922451e-02  9.0204549108658966e-02  -1.1839537379348149e-01  -9.9770103667173635e-02  -2.4923672717692816e-02  -1.6000141683814417e-02  1.0903249313997415e-01  1.1665861382204459e-01  -1.4473381742645973e-02  1.8136283840841202e-02  8.2414830902246602e-03  -1.9204707535721375e-02  3.1497565747238755e-02  -4.7819440961534780e-02  1.5301269327771255e-01  9.3840302814455819e-03  1.6476695513876077e-02  5.8910061664813752e-02  6.5277644605174125e-03  1.8060718351349939e-02  1.7430315122131463e-02  -1.5541370211386196e-01  1.2834837683495803e-01  -7.6137666008741145e-03  -5.7149220106153115e-02  -1.9763929736855156e-02  -3.8295306936951566e-02  -9.4956917690373985e-03  7.3556886295995605e-02  -5.7698848663873675e-02  -3.0749032026744206e-03  -6.1878252851062417e-03  8.2811317230354023e-02  -4.6829448378596129e-02  2.2765004724550422e-02  6.0017612158291878e-02  -4.0321700032520315e-02  -4.1211304967613320e-02  2.0001472764581186e-02  1.1078923924447424e-02  -1.1165050422982610e-02  -8.6938700808979516e-02  -1.0520797968426635e-01  -3.3229897997270434e-02  -1.5683403814921240e-01  -4.2575515798912798e-02  -1.0795899206301878e-02  -1.5452707911893205e-02  4.9681770611490157e-02  -8.3392250082683569e-02  6.7119940130790701e-02  8.8311798560603394e-02  -3.6306809988142074e-03  -1.5585571272043549e-02  -7.2864913962845182e-03  7.2740174393884144e-03  6.1391058847999780e-02  9.9816415828681046e-02  9.8236052451631944e-02  -5.9332738929459361e-03  5.0415055443216337e-03  3.9129540034511922e-03  1.7280824042188096e-03  -2.3888591687428475e-03  -7.7807462310088379e-02  1.4375969172152548e-02  1.5313080079336785e-02  1.2736542693651279e-02  1.4967409300085343e-02  8.4920583542424183e-02  0.0000000000000000e+00  -1.8368691880401175e-02  -8.9848853119692575e-03  -1.4652943420144072e-02  4.1870239010998865e-02  0.0000000000000000e+00  1.1072636372247106e-01  -1.5298433631730965e-02  2.5548951403390602e-02  6.5771154653027535e-03  4.2046625288557321e-02  1.2905843988531179e-02  3.0491719831843206e-02  0.0000000000000000e+00  -1.5036317508066653e-02  0.0000000000000000e+00  3.8823329824459664e-02  -6.9325130215483172e-02  -6.9057373144343808e-03  -9.0534917677300240e-03  -9.9142124572628842e-03  7.7935011839352017e-02  -9.6813603743932927e-02  -8.4810186165360832e-02  -6.2262286416280330e-02  -8.8700552555942155e-02  2.0383979335734333e-02  -7.3180769969117560e-03  3.8511222485423928e-02  3.6502551417804154e-02  3.2047348134643432e-02  3.6627427425035636e-02  6.7231270025832762e-03  1.6734520073259287e-02  6.7446306350043408e-02  -5.3785131949317050e-03  6.7154931267420694e-03  -4.3341402371683407e-02  -8.0405584373330775e-03  1.4312231787823593e-01  1.6153274974432652e-01  0.0000000000000000e+00  -1.4678904569150648e-02  -4.0840461623485938e-02  -7.2605053562759458e-03  -2.3447374296921314e-02  -8.4669804297359416e-02  8.8261118257889903e-03  1.3056812666803511e-01  7.6252625734867366e-02  6.6889097193340671e-02  2.9498078724318623e-02  -1.9045943474365647e-02  -9.9612703554952831e-02  -6.1144327341316557e-02  -9.9122727517560461e-02  -2.1265830878674633e-02  4.7905815888387632e-02  6.8770943630772395e-03  6.8770943630772395e-03  -1.0211490495347609e-02  5.1438488561568680e-03  2.8518355833118516e-03  9.8507807980766082e-03  8.7056838455452090e-03  7.4341409475417132e-03  -6.7503756286753827e-02  -1.3329652715126147e-01  5.9551828307419778e-02  1.2881516812861046e-01  1.4318366841354391e-01  -2.6621280529196625e-02  -5.3601008139379500e-02  -3.7222615565967690e-02  6.5911541278663055e-02  1.0435944639589932e-01  6.0817126361020234e-02  -4.4224219049800437e-02  -1.3172176201965163e-01  1.7370566079688989e-02  1.6555426635026539e-03  -6.6004422921236330e-02  -2.6139042034213928e-02  -3.0544674343437692e-02  1.2345602427211153e-02  5.1150955475752657e-02  8.2179582684933056e-02  5.6065019251107989e-02  5.4823731791695536e-02  7.4491802332975806e-03  -3.9983352837470440e-02  7.9315750757359582e-02  -5.0390668675780362e-02  -5.3502269768023240e-02  7.3445285054857340e-02  5.2472686096216255e-02  -7.5183242990511268e-02  -4.7650641205348558e-02  -7.4331140898020814e-02  -3.7140123271819925e-02  -5.4865372284866876e-02  -9.2743618312770171e-02  -1.1373719518278570e-01  7.4372168375022004e-03  9.0584395715745964e-03  -7.8918507404651866e-02  -7.8914217270475970e-02  1.8415344145627312e-02  1.9077151053218822e-02  7.7176951563259572e-02  1.0905645648143326e-02  5.8245790794955621e-02  3.8249835002503507e-02  8.1430586800069881e-03  2.0506228177713783e-02  1.2063379657723470e-02  3.3492410867514547e-02  -6.5215042857262309e-03  -3.1787580696354588e-02  -6.4875489090755495e-02  -5.8989923842226358e-02  -5.1864337072795717e-02  -7.1511727085403570e-02  1.5201469216373259e-01  -5.4112138449698900e-02  -3.0870784154440296e-02  4.5556849699559150e-02  -2.6036070588133453e-02  -1.0198437601413970e-02  -3.6770231464357157e-02  7.4583925475839108e-03  5.2560028974552742e-03  -1.4524806634672141e-01  3.9277415521401911e-02  5.2594485753987820e-02  -5.0614886248182668e-03  -9.5541278927900111e-02  -1.2471707988474200e-01  -1.5305197342531426e-01  4.7247567295118954e-02  -9.1263737123513641e-02  1.0128690593231571e-01  -8.2657757672551832e-02  -1.0426208282180097e-01  -1.2049333754190276e-01  -1.4620662584130082e-02  -4.5761152964706620e-02  -1.1304741764589104e-02  6.3483614164551089e-02  9.1708207597998595e-02  5.7793580858306909e-02  6.7125134244065451e-02  1.1426447608477752e-01  3.8809831010458685e-02  1.3667410506424213e-01  -2.0014730825192433e-03  6.1884434451055289e-03  -4.1344756213527657e-02  -2.6903492953687339e-02  -1.1612025244105001e-01  -7.8581420588147058e-02  -1.0853345517529758e-01  -2.2802984629875487e-02  3.9295871665099751e-03  3.9295871665099751e-03  2.2734717087694603e-02  2.2799319541467390e-02  1.0489616567284804e-01  8.8117045803636357e-02  1.3040662647380055e-01  9.9549440249900256e-02  0.0000000000000000e+00  0.0000000000000000e+00  -8.4671651877898570e-03  4.0435149220692992e-03  4.9438709072160116e-02  -9.4729300132500582e-02  -3.6025879276514308e-02  8.5589211799826037e-02  -6.0730398622712307e-03  7.6706498298339851e-02  4.2610827113347127e-02  3.1552328879981069e-03  -2.2500535091569261e-02  -3.1548180692446744e-03  3.3823176017070453e-02  8.0618296984060322e-03  3.2725744626474755e-02  -8.1747635582240838e-02  1.6642220363835277e-02  5.7180137998238088e-03  -7.5703537335818680e-02  4.1539111298679265e-02  -1.3453327575151880e-02  1.1683898049894404e-02  -6.7741566107682866e-02  -6.3216628409064557e-02  -1.0278691722811338e-01  -4.6324216503020217e-02  -2.5230386899590004e-02  3.8897444224615342e-03  -1.3655379857214212e-01  -1.2515261835761890e-01  1.5425013047621594e-02  1.0969545925432056e-01  1.0552434762555717e-01  2.3722492919453064e-02  2.7214046631590647e-03  -1.3920563222837251e-01  1.5988771171416390e-02  8.1632918783897404e-02  1.3043800826026311e-03  -1.8146154475393455e-02  4.9258908578150892e-02  2.4503661743476960e-02  5.0524478212279150e-02  -3.3360687238496264e-02  -1.4669737183893822e-01  -5.8460600575490239e-03  -1.5765823961054980e-02  -3.6199444650973710e-02  4.1416684691992431e-02  -1.5758336869555203e-01  1.5621623904471990e-01  6.8716776708639224e-02  8.5060539886720729e-02  1.1663128867061066e-01  -2.5631882908089605e-02  -7.0352095353317856e-03  -8.5319178839259550e-03  -2.1042224976145067e-03  -2.1042224976145067e-03  1.5197114751193395e-02  4.4601196468931473e-02  1.9722658086460357e-02  6.9735179709252571e-03  -9.6257231640829805e-02  -4.6987806465114509e-02  1.1022258332334235e-01  1.5222807129784294e-01  1.4185457932544210e-01  5.4369078399660063e-02  -1.6359838691027973e-01  -8.6485031374509469e-02  1.4592116675278832e-01  -4.3223529278883961e-02  -4.5449154872452907e-02  -2.1046692746226534e-02  1.7419567063145772e-03  -1.5520210391098363e-01  8.3312275839073205e-02  -1.1405326166948274e-01  -1.3378468671139657e-01  -3.6744468804875877e-02  1.8344643378591034e-02  -7.6775702891537954e-03  -5.1115070770806409e-03  -6.4793509687637125e-03  -5.4049919348546832e-02  1.0803371353197141e-01  1.1535709077093089e-02  2.2327877161430167e-02  -7.8036240201630807e-03  0.0000000000000000e+00  0.0000000000000000e+00  1.5520525732978668e-02  0.0000000000000000e+00  1.4163600488247960e-02  -5.1048346941436624e-02  -4.8320024875599839e-02  -6.2047612115318354e-02  -8.6473622093191996e-03  -6.6637189439343585e-03  -3.9551891178575566e-03  -8.7140301258654875e-03  6.0509503205429006e-03  8.6881342881900650e-02  2.5112899057865234e-02  1.6091031217752119e-01  -6.6835786158875463e-02  -1.6046887057650439e-02  5.0877802263420174e-02  7.7383812743879055e-03  1.2339653863837568e-02  1.4039327878209494e-02  -1.1153317834570037e-01  -3.8116641931469956e-02  -3.1859722754706742e-02  8.1631317354497589e-03  6.9725064220970509e-02  -1.8401017295204764e-03  0.0000000000000000e+00  -8.9971794595697600e-03  2.4532853835030309e-02  1.7824451947342848e-02  -2.1125854966563822e-02  -1.4493086106674571e-02  3.6272312291749605e-02  -5.1450753931879187e-03  5.7520270471532143e-03  4.2963577365941483e-03  7.0068053071784906e-03  0.0000000000000000e+00  7.5626526786493013e-03  -9.6094402071745022e-02  0.0000000000000000e+00  -4.9729513320541730e-03  -2.3688560300219250e-02  3.8366032873661145e-02  0.0000000000000000e+00  0.0000000000000000e+00  8.0224635748023188e-02  -1.1451301498290281e-01  -1.1155049432801439e-01  0.0000000000000000e+00  -4.3164855028109779e-03  3.2983195640505059e-02  2.7120666286738863e-02  -3.6088769990937249e-03  -8.5782583971188070e-02  -1.0318738775863606e-01  0.0000000000000000e+00  0.0000000000000000e+00  -4.6681134113098890e-02  7.4397985361408297e-03  -6.9941369128104511e-03  -1.8703574863169373e-02  -1.5598265935380289e-02  -9.7623995306328454e-02  3.4508862150172084e-02  8.8582247128168409e-02  3.9084959962886572e-03  -6.2411560284386259e-03  0.0000000000000000e+00  0.0000000000000000e+00  3.9084959962886572e-03  -6.2411560284386259e-03  -4.4941321996008103e-03  6.0509503205429006e-03  0.0000000000000000e+00  0.0000000000000000e+00  -4.4941321996008103e-03  0.0000000000000000e+00  0.0000000000000000e+00  0.0000000000000000e+00  0.0000000000000000e+00  -6.9057373144343808e-03  -7.8104713206304469e-03  7.6455316640946860e-03  -7.8104713206304469e-03  7.6455316640946860e-03  9.2160279333236463e-04  9.2160279333236463e-04  0.0000000000000000e+00  0.0000000000000000e+00  0.0000000000000000e+00  -5.1115070770806409e-03  7.4372168375022004e-03  -7.4837683102275242e-03  0.0000000000000000e+00  -1.8401017295204764e-03  0.0000000000000000e+00  1.3043800826026311e-03  0.0000000000000000e+00  -7.4837683102275242e-03  -5.7846188542934954e-02  -2.5160692716132169e-02  -4.8711347835980995e-02  1.3807770864133234e-02  8.4530380409098237e-03  7.3204544751867863e-03  1.1389583324642709e-02  1.9060199575909906e-02  -1.4338365839430068e-02  -6.0679479565716760e-02  -1.1942580131118543e-02  9.1753162601238628e-03  2.4184965575757373e-03  -6.5990102216984189e-02  -1.1671464342638160e-02  2.6693932452071373e-02  -1.7207687571711242e-01  -1.9383787797851618e-02  -1.3528450376976251e-02  -1.3291697518791886e-02  1.0065073561118260e-01  -4.0175626633443040e-02  -8.5329735218757866e-03  3.9288400969891960e-02  -1.6633357864883045e-02  4.2802183489120314e-02  -2.3828771072879253e-02  1.1585216803434206e-01  4.5252467928284301e-02  3.8690094365502765e-03  3.6017585586567667e-02  1.2587985793484507e-01  1.3020896170350044e-01  3.2860267176097135e-02  -8.0065075693748280e-03  2.8549376619370702e-02  2.6194718572543178e-02  1.6907418071935182e-01  -6.6236911561227046e-02  6.1545596565898723e-03  1.2311690302004210e-02  -9.9316137752937465e-03  -2.4813401727720473e-02  -1.3553383854688329e-02  -1.7233465082120674e-03  5.5627749147381618e-02  -2.5707536867047399e-02  1.4215273491625674e-01  -1.9875559749831994e-03  -1.2799153552134762e-01  -1.3946482000646340e-02  3.4144028793820842e-02  -1.4694553587986575e-02  -1.3938697339698320e-02  -1.0809097473773184e-01  -4.4235057429707215e-02  -3.1175414879347958e-02  2.4728952732041773e-02  1.3759871910567019e-02  -4.1794740772227106e-02  -6.2404364403810378e-02  8.9682492641558864e-02  -4.3440097410999134e-03  -2.4426149027659792e-03  -2.3164032142513408e-02  -1.0130014936634730e-02  -4.7452382870946441e-02  -2.0759733859846505e-02  7.5217006097727567e-03  -1.5554949667848931e-02  -2.4554144493186915e-02  -1.6460219602601637e-02  -1.8274662644871550e-01  -8.0524783010304871e-02  -4.3942123788740628e-02  -6.0723755765783136e-02  -9.5626781222740240e-03  -2.8049851021903549e-02  -2.1483475388107926e-02  2.0551737058601017e-02  2.2062414208096692e-02  -5.6924429451819846e-03  9.9575990629453812e-02  -1.1613063116684572e-02  -8.41155352915660