<?xml version="1.0"?>
<VTKFile type="UnstructuredGrid"  version="0.1"  >
<UnstructuredGrid>
<Piece  NumberOfPoints="1461" NumberOfCells="2789">
<Points>
<DataArray  type="Float64"  NumberOfComponents="3"  format="ascii">-0.5 6.123233995736766e-17 0  -0.4914865498419509 -0.09187475890828506 0  -0.466236114702178 -0.1806208330935763 0  -0.4251085678648071 -0.2632160814386779 0  -0.3695044586103295 -0.3368478218232786 0  -0.3013173181896286 -0.3990086136401195 0  -0.2228691778882694 -0.447581645677531 0  -0.1368314950360416 -0.4809128215864095 0  -0.04613417973165096 -0.4978670881475173 0  0.04613417973165122 -0.4978670881475172 0  0.1368314950360414 -0.4809128215864095 0  0.2228691778882688 -0.4475816456775313 0  0.3013173181896281 -0.3990086136401199 0  0.3695044586103293 -0.3368478218232789 0  0.4251085678648069 -0.2632160814386781 0  0.4662361147021779 -0.1806208330935765 0  0.4914865498419509 -0.09187475890828503 0  0.5 0 0  0.4914865498419509 0.09187475890828517 0  0.4662361147021779 0.1806208330935765 0  0.4251085678648071 0.2632160814386779 0  0.3695044586103295 0.3368478218232786 0  0.3013173181896282 0.3990086136401197 0  0.2228691778882692 0.4475816456775312 0  0.1368314950360415 0.4809128215864095 0  0.04613417973165101 0.4978670881475172 0  -0.04613417973165095 0.4978670881475173 0  -0.1368314950360414 0.4809128215864095 0  -0.2228691778882689 0.4475816456775313 0  -0.3013173181896281 0.3990086136401198 0  -0.3695044586103297 0.3368478218232785 0  -0.425108567864807 0.263216081438678 0  -0.4662361147021779 0.1806208330935767 0  -0.4914865498419509 0.09187475890828518 0  -0.9989008914857115 0.04687226246993986 0  -0.9989008914857115 -0.04687226246994006 0  -0.9901225145346509 -0.1402048722818856 0  -0.972642905324813 -0.2323053566349833 0  -0.9466156752904342 -0.3223643331611536 0  -0.912269552664897 -0.4095903603365061 0  -0.8699063724087903 -0.4932168926979072 0  -0.8198984236734248 -0.5725090172720717 0  -0.7626851781103823 -0.6467699120171984 0  -0.6987694277788414 -0.7153469695201277 0  -0.6287128665908849 -0.777637532133752 0  -0.5531311541252 -0.8330941881540912 0  -0.4726885051885656 -0.8812295824940283 0  -0.3880918526722498 -0.9216206995773374 0  -0.3000846350003406 -0.953912580814779 0  -0.2094402627661449 -0.977821443992945 0  -0.1169553219720827 -0.9931371771625541 0  -0.02344257360326047 -0.9997251851098159 0  0.07027618894529231 -0.9975275721840101 0  0.1633773618185306 -0.9865636510865464 0  0.2550427685616762 -0.9669297731502506 0  0.3444668502843321 -0.9387984816003867 0  0.4308637449409707 -0.9024169952385882 0  0.5134741935148417 -0.8581050358751444 0  0.5915722124135216 -0.8062520186022304 0  0.6644714734388218 -0.747313629600077 0  0.7315313352636686 -0.6818078215504381 0  0.7921624734111292 -0.6103102618497922 0  0.8458320592590973 -0.5334492736235703 0  0.8920684425573863 -0.4519003139999344 0  0.9304652963070865 -0.3663800381682465 0  0.9606851875768402 -0.2776400013875007 0  0.982462542875576 -0.1864600542916819 0  0.9956059820218981 -0.09364148953435038 0  1 0 0  0.9956059820218981 0.09364148953435077 0  0.9824625428755761 0.1864600542916812 0  0.9606851875768402 0.2776400013875006 0  0.9304652963070866 0.3663800381682462 0  0.8920684425573865 0.4519003139999338 0  0.8458320592590974 0.5334492736235703 0  0.7921624734111293 0.6103102618497921 0  0.731531335263669 0.6818078215504377 0  0.6644714734388217 0.7473136296000771 0  0.5915722124135224 0.8062520186022298 0  0.5134741935148421 0.8581050358751442 0  0.4308637449409705 0.9024169952385883 0  0.3444668502843328 0.9387984816003864 0  0.2550427685616765 0.9669297731502506 0  0.1633773618185302 0.9865636510865465 0  0.070276188945293 0.9975275721840101 0  -0.02344257360326044 0.9997251851098159 0  -0.1169553219720825 0.9931371771625542 0  -0.2094402627661442 0.9778214439929452 0  -0.3000846350003405 0.953912580814779 0  -0.3880918526722498 0.9216206995773374 0  -0.472688505188565 0.8812295824940286 0  -0.5531311541251994 0.8330941881540915 0  -0.6287128665908847 0.7776375321337522 0  -0.6987694277788417 0.7153469695201276 0  -0.7626851781103822 0.6467699120171985 0  -0.8198984236734244 0.5725090172720723 0  -0.8699063724087902 0.4932168926979075 0  -0.9122695526648968 0.4095903603365063 0  -0.9466156752904341 0.3223643331611538 0  -0.972642905324813 0.2323053566349835 0  -0.9901225145346509 0.1402048722818858 0  -1.1 1.1 0  -1.1 -1.1 0  1.1 -1.1 0  1.1 1.1 0  -1.1 0 0  0 -1.1 0  1.1 0 0  0 1.1 0  -1.1 -0.55 0  -1.1 0.55 0  0.55 -1.1 0  -0.55 -1.1 0  1.1 0.55 0  1.1 -0.55 0  -0.55 1.1 0  0.55 1.1 0  -1.1 -0.275 0  -1.1 0.275 0  0.275 -1.1 0  -0.275 -1.1 0  1.1 0.275 0  1.1 -0.275 0  -0.275 1.1 0  0.275 1.1 0  -1.1 -0.1375 0  -1.1 0.1375 0  0.1375 -1.1 0  -0.1375 -1.1 0  1.1 0.1375 0  1.1 -0.1375 0  -0.1375 1.1 0  0.1375 1.1 0  5.551115123125783e-17 0 0  1.1 0.8250000000000001 0  1.1 -0.8250000000000001 0  -0.8250000000000001 1.1 0  -0.8250000000000001 -1.1 0  -1.1 -0.8250000000000001 0  -1.1 0.8250000000000001 0  0.8250000000000001 -1.1 0  0.8250000000000001 1.1 0  -0.7452577130899811 0.07009504121197063 0  -0.7196145554063145 -0.2047479939110959 0  -0.6695870000800466 0.3334147091903505 0  -0.5967944603467291 -0.4506782564455942 0  -0.5037216596475655 0.5525563387374935 0  -0.3935412594153844 -0.6355909573281985 0  -0.2582020584797643 0.7036952909889966 0  -0.1224874465599003 -0.7396475322243659 0  1.804112415015879e-16 0.7472231737812758 0  0.1372852503520671 -0.7344112228591781 0  0.2911232306082124 0.6913445711599195 0  0.3932371367102588 -0.6350997822946517 0  0.5243503582032214 0.5367899979536359 0  0.5960259246062833 -0.4500978851946297 0  0.6847673336854203 0.3074465196515291 0  0.7183173129809632 -0.2043788966183693 0  0.7449256117842845 0.06204953239509305 0  -0.20035900300458 0.1513040956928792 0  -0.1321718625838789 -0.2134648875097201 0  0.1321718625838787 0.2134648875097203 0  0.1691454556057493 -0.1855437261303996 0  0.8703274951181128 0.8703274951181128 0  0.8537727593964153 -0.8740275859440739 0  0.2685886721097267 0.02488840569699225 0  -0.884556435066475 -0.8244315273435519 0  -0.8845564350664752 0.8244315273435516 0  -0.700580064659332 0.9548184980149617 0  -0.7005800646593325 -0.9548184980149612 0  -0.2980337216678105 -0.02761689135282146 0  -0.0549981651260624 0.2942141970944399 0  1.1 0.6875 0  0.9496207616733379 -0.7125799064602014 0  0.6875 -1.1 0  0.6875 1.1 0  -0.9625000000000001 1.1 0  -0.9625000000000001 -1.1 0  -1.1 -0.6875 0  -1.1 0.6875 0  2.081668171172169e-17 -0.3286953126985109 0  1.1 -0.9625000000000001 0  1.1 0.9625000000000001 0  -0.4285642961523128 0.7162057711357145 0  -0.2922226613044432 -0.776727428568197 0  0.174838450714037 0.8162746937229515 0  0.4617849541950493 0.6955138191869427 0  0.6845471893646073 0.4779975510912708 0  -0.8314184002977903 -0.07656163071707678 0  -0.8042940643706591 0.2324426440997535 0  -0.7469659197661445 -0.372041484500847 0  0.9435817685496533 0.6588731670051087 0  -0.6655841780668343 0.5027264603142332 0  -0.5616418371471765 -0.6162017817942277 0  -0.1378524463486731 0.8324299723484344 0  0.009440324071048431 -0.8383040935568646 0  0.6340216813999336 0.9549268270259341 0  0.6984391415215117 -0.9338903439767606 0  0.300664440564191 -0.7759990472259422 0  -1.1 -0.9625000000000001 0  -1.1 0.9625000000000001 0  0.9625000000000001 -1.1 0  0.9625000000000001 1.1 0  0.8255078551297768 0.1971637233367384 0  0.5931718080586599 -0.60724416156603 0  -0.964569560729961 0.61875 0  -0.9412184400777328 -0.675629987878325 0  0.01451466883707512 -0.1566382224930387 0  0.7445359644808093 -0.3707185760986815 0  -0.6496807851562796 -0.05960531119440617 0  -0.62683574040104 0.1785965340391935 0  -0.5834686517324597 -0.2905328669998186 0  -0.3401882519444225 0.5618906080620845 0  -0.5202412644899305 0.3927183715284568 0  -0.230469700834483 -0.6158690166206668 0  -0.439029499146694 -0.4815924191466816 0  0.1315973236401685 0.6465309847524076 0  -0.04929612731897073 0.1430325247211223 0  -0.1510628756856091 0.008271570971756887 0  0.2352800706632638 -0.6074862080268114 0  0.4388143211162365 -0.4814151137709591 0  0.5830621392046128 -0.290354993318151 0  0.8297887356081327 -0.08096868143845029 0  0.3167546236327295 -0.1265860605627834 0  0.2881011466407613 0.1826342016868564 0  -0.282843184752632 -0.2135932583519227 0  0.6472529330662994 -0.06273876808302634 0  -0.1187431011919023 0.6352194859156121 0  0.005630703506639467 -0.6493092616611125 0  0.3384713093165277 0.5466499340785792 0  0.5118553673379518 0.3865352308568081 0  0.6283965164136763 0.1635550987092959 0  -0.953685798793846 0.953685798793846 0  -0.89375 -0.9706384268651818 0  -0.6875 -1.1 0  0.4125 1.1 0  -0.6875 1.1 0  -0.4125 1.1 0  1.1 -0.4125 0  1.1 0.4125 0  0.4125 -1.1 0  -1.1 -0.4125 0  -1.1 0.4125 0  -0.4125 -1.1 0  1.1 -0.6875 0  0.1394115791193248 -0.04277964460399492 0  -0.3393513283955167 0.1110600808589604 0  -0.1930047892342392 0.3117134374691744 0  0.07927492778061024 0.3481510469172536 0  -0.1324701263156022 -0.3472242494295533 0  0.1439189409798292 -0.3272419854446572 0  0.7177822238787621 -0.5012045196611741 0  0.4845413164728957 -0.7297881373406302 0  0.9613904516514835 -0.9613904516514835 0  0.1835716722752551 -0.8570478058500863 0  0.02055237236693077 0.8764705026293684 0  -0.4210725768174081 -0.7622904223554584 0  -0.5511921771358804 0.6734406073486252 0  -0.6740102264683963 -0.5535712372257735 0  0.1021660343973917 0.08439258971470157 0  -0.7641327511364048 0.4203531262950583 0  -0.8282932755708275 -0.2728623792913848 0  -0.9854957873544363 0.7452945109297571 0  0.9722945504877303 -0.5512686332562167 0  -0.8708679406104808 0.04525295152524858 0  -0.3364219313405007 0.8047457289663124 0  -0.1870734116895495 -0.8510277858141307 0  0.8301367040255592 -0.2719899423920239 0  0.3741394004917264 0.7881775306901468 0  -0.8270615207685887 0.938295111785177 0  -0.7558474866591318 0.8308882058467112 0  0.6370644222528364 0.5962644341027006 0  0.7792401357821636 0.3928441213091871 0  0.8701243835998034 0.07
[...]
<PointData  Scalars="f_58"> 
<DataArray  type="Float64"  Name="f_58"  format="ascii">3.1063477891479296e+00  3.0973666106640256e+00  3.0920702454110365e+00  3.0967187285767430e+00  3.1258512132497516e+00  3.1880012017291328e+00  3.2669847812131954e+00  3.3432302465574635e+00  3.4009004408832477e+00  3.4404305646002253e+00  3.4689886472526568e+00  3.4903187286552844e+00  3.5078297870848250e+00  3.5224283176053155e+00  3.5354813564825860e+00  3.5469985246652618e+00  3.5583679783330440e+00  3.5687607786181861e+00  3.5777975125288974e+00  3.5835545923575252e+00  3.5789479539418232e+00  3.5516553825919015e+00  3.4914374321428889e+00  3.4074198464335783e+00  3.3307241405948411e+00  3.2738489439257985e+00  3.2341483198873280e+00  3.2059867478471897e+00  3.1842632215584143e+00  3.1672623659471295e+00  3.1523223632760113e+00  3.1397696474457955e+00  3.1276208669848464e+00  3.1169020306745665e+00  3.1777971661577955e+00  3.1738517822043848e+00  3.1721117943494219e+00  3.1729228317568223e+00  3.1760467732647708e+00  3.1813725900234897e+00  3.1886433742446796e+00  3.1978801315082270e+00  3.2091097427531778e+00  3.2227870422197862e+00  3.2382447662621505e+00  3.2555001791946112e+00  3.2730492470491970e+00  3.2900508266930752e+00  3.3053565516559256e+00  3.3188416152375804e+00  3.3309752851610801e+00  3.3418849116187053e+00  3.3522886185429859e+00  3.3621021573934549e+00  3.3719749876367184e+00  3.3820568447294952e+00  3.3925879556419973e+00  3.4027614463355449e+00  3.4125211242476436e+00  3.4223036234876583e+00  3.4320768560655508e+00  3.4417907211477843e+00  3.4515284475670391e+00  3.4611777218929443e+00  3.4705598311288788e+00  3.4795163288075788e+00  3.4876010482130497e+00  3.4943653077678838e+00  3.4995008500279257e+00  3.5024390014689586e+00  3.5029800629495744e+00  3.5010906962006247e+00  3.4969287871570014e+00  3.4907498633575327e+00  3.4825611276083084e+00  3.4723438257467967e+00  3.4601345820742626e+00  3.4456502825610116e+00  3.4290690927671754e+00  3.4111898799635409e+00  3.3934223049230914e+00  3.3766810967501368e+00  3.3619566549000033e+00  3.3493246468189328e+00  3.3382606752667932e+00  3.3272352707791510e+00  3.3176420326289118e+00  3.3083578163958078e+00  3.2982379779792512e+00  3.2874863526188598e+00  3.2771844078161130e+00  3.2669260559305098e+00  3.2569253368646782e+00  3.2470994659512531e+00  3.2375028712281546e+00  3.2278396226762784e+00  3.2182337772334004e+00  3.2087806644974988e+00  3.1996733998931135e+00  3.1911918217787001e+00  3.1837464701769282e+00  3.2795271489881466e+00  3.2795271489881466e+00  3.3964649425333406e+00  3.3964649425333406e+00  3.1768383745289941e+00  3.3334749246441446e+00  3.4982117152383294e+00  3.3334749246441446e+00  3.2021467310234084e+00  3.2252391172373787e+00  3.3834513794270173e+00  3.2920684742203967e+00  3.4734546342647219e+00  3.4493472229381426e+00  3.2920684742203967e+00  3.3834513794270173e+00  3.1773672021069879e+00  3.1962463174982831e+00  3.3662414342568305e+00  3.3148574519567129e+00  3.4979874372107447e+00  3.4785916839267292e+00  3.3148574519567129e+00  3.3662414342568305e+00  3.1740246261398446e+00  3.1846516483372986e+00  3.3470221176239319e+00  3.3214658362258320e+00  3.5011143523257222e+00  3.4902668333647915e+00  3.3214658362258320e+00  3.3470221176239319e+00  3.3374135744393643e+00  3.4342944135973092e+00  3.4193419140195211e+00  3.2828962796256094e+00  3.2828962796256094e+00  3.2415363803517363e+00  3.2554231382836161e+00  3.3985481374737683e+00  3.3985481374737683e+00  3.1554195782972019e+00  3.1442910457594082e+00  3.1807424031928981e+00  3.1759478047076053e+00  3.2129012303001421e+00  3.2530740426873641e+00  3.2551137064085194e+00  3.3353824206782741e+00  3.3065888648226345e+00  3.3975682999566570e+00  3.3902663952528345e+00  3.4433211867706253e+00  3.4680531773200083e+00  3.4789131716287978e+00  3.5258280591682278e+00  3.5082039537730028e+00  3.5278770692914807e+00  3.2410451933199074e+00  3.2790105304405381e+00  3.3959084414516472e+00  3.4269777925086320e+00  3.4264525686403906e+00  3.4115403045616115e+00  3.4644388094862051e+00  3.2421955759300136e+00  3.2565065242183584e+00  3.2742507516729646e+00  3.2695660048842536e+00  3.1965198298526558e+00  3.2661330562186062e+00  3.4546679476012789e+00  3.4307205161338712e+00  3.3928016843678175e+00  3.3928016843678175e+00  3.2804610717109539e+00  3.2804610717109539e+00  3.2210733613076750e+00  3.2405566757640680e+00  3.3935543141983775e+00  3.4064791214754413e+00  3.4139323229598255e+00  3.2482179970046143e+00  3.2942967231416218e+00  3.3528433166544782e+00  3.4238850019207687e+00  3.4931416079729618e+00  3.1589315750547780e+00  3.1796922842648114e+00  3.1658005888796605e+00  3.4600464478676125e+00  3.2097713262106353e+00  3.2218988249241973e+00  3.2945391533922015e+00  3.3588505487894156e+00  3.4035137416605896e+00  3.4008051770530665e+00  3.4078290609672810e+00  3.2616492210940211e+00  3.2695606345936810e+00  3.3959449672231177e+00  3.3959449672231177e+00  3.5162957187164849e+00  3.4482102620394475e+00  3.2330278618940773e+00  3.2182403502934247e+00  3.3700455711404045e+00  3.4817225337004669e+00  3.1309246075981823e+00  3.1511234567978126e+00  3.1322903854427251e+00  3.2144297065100282e+00  3.1785064061455981e+00  3.2936225421939116e+00  3.2015735456612928e+00  3.3385973611969515e+00  3.2952465048908621e+00  3.2685485053987771e+00  3.4417618120083713e+00  3.4804814453098980e+00  3.5108025407151962e+00  3.5080164718885674e+00  3.4800509701114484e+00  3.5022800426331657e+00  3.1722519859085994e+00  3.5354469717689763e+00  3.2573294925429175e+00  3.3857862406645971e+00  3.4314689549415833e+00  3.5209628406089721e+00  3.5490541147181300e+00  3.2689411390370604e+00  3.2652054117931892e+00  3.2867073939306461e+00  3.3731369394905291e+00  3.2867073939306461e+00  3.3000461923155906e+00  3.4645657220566695e+00  3.4884551402249504e+00  3.3731369394905291e+00  3.1870209015457425e+00  3.2101415459890172e+00  3.3000461923155906e+00  3.4339869635196347e+00  3.3997898375630737e+00  3.1853278176305593e+00  3.2181323298650213e+00  3.3193067327324459e+00  3.3167076511484490e+00  3.4435339982161790e+00  3.4623573449428289e+00  3.4250039064862787e+00  3.4047315966298628e+00  3.3818770196352839e+00  3.3245819891276107e+00  3.2682674727427896e+00  3.2383964939807997e+00  3.1983154583868880e+00  3.3978562661991241e+00  3.2020679099700438e+00  3.1631329667525092e+00  3.2471449024687922e+00  3.4492677755518173e+00  3.1688024055589765e+00  3.2701072425860951e+00  3.3197061260055314e+00  3.4882458936312339e+00  3.3956639179363197e+00  3.2690092967227935e+00  3.2595013935851069e+00  3.4662391425826278e+00  3.5041077951257096e+00  3.5117527102939592e+00  3.2517356874038130e+00  3.5515776449035359e+00  3.1929776296018857e+00  3.4585536972587771e+00  3.4765272955585416e+00  3.4245514900533447e+00  3.4083928471845981e+00  3.2865578625307372e+00  3.2216694390842910e+00  3.4175019580852610e+00  3.2441117265838670e+00  3.4128974500805702e+00  3.1888418372533303e+00  3.3929063140510380e+00  3.2426497237874594e+00  3.1182205626006607e+00  3.1469445695189187e+00  3.2826200535075478e+00  3.2766654218372762e+00  3.2462041508335679e+00  3.4714431054529284e+00  3.5044848378426812e+00  3.1326722336890773e+00  3.1566664426338962e+00  3.3494933815141823e+00  3.2015313396615892e+00  3.5310997744983674e+00  3.4771767460259353e+00  3.2196592619727444e+00  3.4474753188640994e+00  3.4399753704884839e+00  3.2908479399119104e+00  3.4267515477515413e+00  3.2292229406782074e+00  3.5205863175000758e+00  3.3848368547615766e+00  3.4761725185211483e+00  3.3847508596128044e+00  3.3993192642463086e+00  3.4143478111031964e+00  3.4245133405523007e+00  3.1497437490704616e+00  3.5517676272576688e+00  3.2345351989563902e+00  3.2453154047846282e+00  3.2248570979896294e+00  3.2290558444516582e+00  3.2909767068451270e+00  3.4057671005342569e+00  3.1838559083234852e+00  3.2668243548620199e+00  3.2585595348319920e+00  3.4508907991988762e+00  3.1648006516545624e+00  3.3726640115761342e+00  3.4425488812574638e+00  3.1800271962865398e+00  3.1946848088779389e+00  3.4405601820315517e+00  3.3843599964230640e+00  3.2919965749370008e+00  3.2588182433229620e+00  3.2256033452026562e+00  3.3111047929412196e+00  3.1483628651529338e+00  3.2626754967067280e+00  3.2560798222877692e+00  3.2913365617952888e+00  3.4563804230811437e+00  3.2312880541672429e+00  3.5152477993730575e+00  3.5301958615098412e+00  3.3410530264692544e+00  3.2833941469533592e+00  3.2722093033543462e+00  3.3940693366446610e+00  3.4333001084160730e+00  3.4427768379527568e+00  3.4971737307507125e+00  3.2762464430691720e+00  3.4053598813920893e+00  3.4262224739106588e+00  3.4007453751237349e+00  3.2757199103937431e+00  3.2296411042288811e+00  3.4944550320413712e+00  3.4864434210016708e+00  3.4714269988189566e+00  3.4607703241970400e+00  3.4394533437022594e+00  3.4643944132695013e+00  3.2708496616851717e+00  3.2776134081480706e+00  3.2599905698871403e+00  3.4950360661929749e+00  3.4031026683165373e+00  3.5265027143346486e+00  3.1901174169778876e+00  3.4093120040930205e+00  3.3772908308835952e+00  3.5050731237097907e+00  3.3334041029855364e+00  3.3611760715672303e+00  3.4265257404701681e+00  3.2081298388316868e+00  3.4416297844512105e+00  3.4758724122640197e+00  3.1700594533992321e+00  3.3087261443697451e+00  3.3017379858422058e+00  3.2986248505350559e+00  3.5228869560573912e+00  3.1560565987430658e+00  3.1448064207575150e+00  3.1910266259956757e+00  3.2254727620977683e+00  3.4419755340303309e+00  3.2858613549130564e+00  3.4663119533009072e+00  3.4477212850171890e+00  3.4286160483563615e+00  3.4294479382338054e+00  3.3652573704804118e+00  3.3888747230723899e+00  3.4991271817062333e+00  3.3153324840369822e+00  3.3421025309823347e+00  3.2306042355794138e+00  3.2132579088282038e+00  3.5189201517536146e+00  3.5339547860511553e+00  3.4126026824334472e+00  3.1823875213638448e+00  3.2388078469057957e+00  3.3429253818870079e+00  3.2968792466361738e+00  3.1464954096890057e+00  3.4393250138398677e+00  3.4885026432613340e+00  3.4256365683806096e+00  3.4919724711823283e+00  3.4173757615793554e+00  3.2511522371596411e+00  3.1968129462767205e+00  3.1985816616931193e+00  3.1438576694153824e+00  3.2766747951909965e+00  3.5080120627268836e+00  3.3674000075186878e+00  3.3674000075186878e+00  3.2833207477134381e+00  3.3789249323668877e+00  3.3449591604432256e+00  3.3766189490775140e+00  3.3759174293399368e+00  3.3741642959726903e+00  3.1651104565901726e+00  3.1656632302612575e+00  3.3845413235679440e+00  3.5025813696877779e+00  3.5216657385731249e+00  3.3129759318212573e+00  3.2745228987048223e+00  3.2237793678069693e+00  3.4142708922718832e+00  3.4746212923739206e+00  3.5152169540991589e+00  3.2943819117543773e+00  3.1707620920486401e+00  3.3092094631067650e+00  3.3526615101227235e+00  3.1560984686998550e+00  3.2656265155673316e+00  3.2537398938835405e+00  3.3565881322094921e+00  3.4247748755238341e+00  3.5105222353604404e+00  3.4777818902699456e+00  3.4912008222845770e+00  3.3884675230708914e+00  3.1679293024795205e+00  3.5191892055690146e+00  3.1771945383426656e+00  3.2283980578446108e+00  3.3930863594147067e+00  3.4652365315917573e+00  3.2760338112081122e+00  3.2157301217507173e+00  3.2785860735465593e+00  3.1890071790350492e+00  3.1690500464729099e+00  3.2406767702939985e+00  3.1852609505688991e+00  3.3866025220796745e+00  3.3907206621002626e+00  3.1910000591124912e+00  3.1752919221043232e+00  3.4022777196208707e+00  3.4089595750726978e+00  3.4462102182725349e+00  3.4039526069975934e+00  3.5049389913343667e+00  3.4987762936629117e+00  3.3993774711006703e+00  3.3987982030269537e+00  3.3987628829880583e+00  3.4255412888283558e+00  3.3067090316823835e+00  3.3229679402779078e+00  3.2717588977879166e+00  3.2096290908202594e+00  3.2132803009278068e+00  3.2434726912346776e+00  3.5645627063620351e+00  3.1850890420417453e+00  3.2805802893714353e+00  3.4605441896953240e+00  3.3306141699661529e+00  3.3042829230131661e+00  3.2152072304154973e+00  3.4599003829359258e+00  3.4480391666594756e+00  3.1146956923746125e+00  3.4407439099864856e+00  3.4766395632035918e+00  3.3605762375192740e+00  3.1698074719659957e+00  3.1339999899171209e+00  3.1176676153072576e+00  3.3673501008847246e+00  3.1489469617739374e+00  3.4499067840690785e+00  3.1647965036614445e+00  3.2236424630529936e+00  3.2052272004892011e+00  3.1978443008458313e+00  3.1723314174112360e+00  3.2843919920220741e+00  3.4658481226847289e+00  3.4989228033927828e+00  3.4634523001285329e+00  3.4819865175080635e+00  3.5288559641049120e+00  3.3785498211763478e+00  3.5508453495453329e+00  3.3880053339967255e+00  3.3647027506439469e+00  3.3038916045036411e+00  3.2630028089467746e+00  3.1529559247479968e+00  3.1742568993604237e+00  3.1320598114527383e+00  3.2055441883839526e+00  3.3535185558554748e+00  3.3535185558554748e+00  3.4614708722729235e+00  3.4720656961200902e+00  3.4492447549511214e+00  3.4616530855390928e+00  3.4929791834177686e+00  3.5363547448437855e+00  3.1900851328851441e+00  3.1748914018845302e+00  3.3264411214474179e+00  3.3957152706078153e+00  3.4498247461144289e+00  3.2319388172673085e+00  3.1718447811298760e+00  3.5146587886078713e+00  3.3484278409325663e+00  3.5256977269797871e+00  3.5080040018123175e+00  3.3249320178318027e+00  3.2272444288504887e+00  3.2656053062150314e+00  3.4373483009295853e+00  3.3144005786893764e+00  3.3752442747961515e+00  3.2014926134676172e+00  3.4004412058398019e+00  3.4255397203163205e+00  3.1559422328320275e+00  3.4079699749314734e+00  3.2297377853066740e+00  3.4224429456942884e+00  3.2047360425901901e+00  3.1588350891052208e+00  3.1599360944468691e+00  3.2298825350025480e+00  3.2543055311638387e+00  3.3250686014269957e+00  3.1778729234934442e+00  3.1832595508479971e+00  3.4196247261204031e+00  3.5395208954993591e+00  3.5413397932126336e+00  3.4325660099742561e+00  3.4090849039516100e+00  3.1631853563940089e+00  3.3934226921406636e+00  3.4596843129636112e+00  3.3963376574235165e+00  3.2850180128883966e+00  3.5037333780858169e+00  3.3848016734026216e+00  3.4540363809957997e+00  3.2417380915901237e+00  3.1502443434394420e+00  3.2916138276567088e+00  3.3105444175505028e+00  3.1770697704704083e+00  3.3737593710847062e+00  3.1408703088631031e+00  3.5312338060022674e+00  3.4074503175360644e+00  3.4127856598517616e+00  3.4626255781798134e+00  3.2113090326415641e+00  3.2391775277591557e+00  3.2275085160919645e+00  3.3273935593455009e+00  3.3273935593455009e+00  3.4350058864035931e+00  3.3494830392201149e+00  3.3956862298308628e+00  3.4153646663589430e+00  3.2327707920640631e+00  3.2579915673000595e+00  3.4913830309501197e+00  3.5518354209273255e+00  3.5180478581635466e+00  3.4915162431633773e+00  3.1328335782818142e+00  3.2162978086901370e+00  3.5615444335264685e+00  3.1680900638666527e+00  3.2599674740692612e+00  3.2311398646014395e+00  3.4093661397374304e+00  3.1104175246621564e+00  3.4779265425593406e+00  3.1440753554994858e+00  3.1221340029397613e+00  3.2051640586128873e+00  3.4125421086247369e+00  3.3126843987156187e+00  3.3211449538363227e+00  3.3078452399035081e+00  3.1946418808236374e+00  3.5203675104313592e+00  3.4110969401718760e+00  3.4237860800302546e+00  3.2237463481871251e+00  3.2312465172139668e+00  3.5003099590341784e+00  3.4999744473938881e+00  3.4847885837226076e+00  3.4816377377590575e+00  3.1957303501052077e+00  3.3161933855213048e+00  3.2564608809666322e+00  3.2625915654260003e+00  3.2811663129338839e+00  3.2739713374896158e+00  3.2538633837321576e+00  3.3917378456554603e+00  3.4186597906320904e+00  3.3730265299053492e+00  3.5392278507734685e+00  3.2824094815349500e+00  3.1771922693991668e+00  3.4514645775613979e+00  3.4292582646216232e+00  3.4380353066151912e+00  3.4493573957321888e+00  3.2145339337726480e+00  3.2856536506161964e+00  3.2548197025821035e+00  3.4535663070751363e+00  3.4203501571589139e+00  3.2724931558522754e+00  3.2723269313128225e+00  3.2869606506338536e+00  3.3442960266382773e+00  3.4319694959368716e+00  3.2622994757213086e+00  3.2440938668631367e+00  3.5049745367011860e+00  3.3185292037378096e+00  3.3551371344971939e+00  3.3634293605691812e+00  3.3689685822818611e+00  3.2176113153339805e+00  3.3902944546230951e+00  3.1425960097388499e+00  3.2029949367082931e+00  3.2758348470404060e+00  3.1920858431506436e+00  3.5070271426274795e+00  3.5003701515169774e+00  3.4947465033770895e+00  3.5005002211520098e+00  3.1718510219849998e+00  3.1323244876968279e+00  3.2480799253140868e+00  3.2526128901475548e+00  3.4253918937200298e+00  3.4132856501930346e+00  3.3243234975370348e+00  3.2408259493673217e+00  3.1935210229197528e+00  3.4815968621147690e+00  3.2329265160216645e+00  3.2305044858536518e+00  3.4061175530437584e+00  3.3277139256284238e+00  3.2750915095423330e+00  3.2831718020590612e+00  3.1720497064789268e+00  3.4799829964294262e+00  3.5212732905035757e+00  3.4004462732106142e+00  3.2846338027461686e+00  3.4445668998876631e+00  3.4240682862885596e+00  3.4004462732106142e+00  3.2846338027461686e+00  3.2815145945998365e+00  3.3917378456554603e+00  3.2517168750101644e+00  3.2625772858394253e+00  3.2815145945998365e+00  3.1814599421391079e+00  3.1939484369954765e+00  3.4717952938139791e+00  3.4939715553296495e+00  3.3087261443697451e+00  3.2969871087626887e+00  3.3801094647254466e+00  3.2969871087626887e+00  3.3801094647254466e+00  3.3483769413926310e+00  3.3483769413926310e+00  3.1802075969525108e+00  3.1747393057855979e+00  3.4570308832240841e+00  3.3211449538363227e+00  3.3866025220796745e+00  3.2890935734149171e+00  3.2764056858428918e+00  3.2724931558522754e+00  3.4012991036976192e+00  3.3963376574235165e+00  3.2112990747335486e+00  3.2890935734149171e+00  3.2346747733329990e+00  3.2361956883635470e+00  3.2250006788389416e+00  3.4097952115327010e+00  3.4780394293692041e+00  3.4692473596767868e+00  3.4203386421610027e+00  3.4338407398275708e+00  3.2674914988121060e+00  3.3001428975910354e+00  3.2855327923002990e+00  3.3879216315936960e+00  3.4017479923690956e+00  3.1973355758670965e+00  3.2664960089082009e+00  3.4815809745395727e+00  3.1278399276917503e+00  3.2353250760049095e+00  3.2414419581217566e+00  3.2490364016070750e+00  3.4393768389341761e+00  3.2914769463855280e+00  3.1975315944788631e+00  3.4377245838827286e+00  3.3487816886547201e+00  3.4121835234033471e+00  3.2437049684953170e+00  3.4950434038162062e+00  3.3761036030417291e+00  3.4380722130078536e+00  3.4572519301956439e+00  3.5090821515059210e+00  3.4967182863003194e+00  3.4872430197729005e+00  3.2930517360958249e+00  3.4188831735939620e+00  3.4118116465674584e+00  3.5695901037835900e+00  3.2070502101178473e+00  3.3966490281753923e+00  3.3782588615758660e+00  3.2799590475330707e+00  3.1805086793175734e+00  3.1737247752881133e+00  3.3254257968209915e+00  3.4983022391461871e+00  3.2654002118504382e+00  3.4994925501745429e+00  3.3577550824886631e+00  3.1662188808314795e+00  3.2775653561781084e+00  3.4779102194508620e+00  3.1888073737139360e+00  3.1748288376578859e+00  3.2345801613542586e+00  3.2249865037127532e+00  3.2496082793196202e+00  3.4569470073875985e+00  3.3977055099249140e+00  3.2811978630791749e+00  3.2588920190710335e+00  3.4258117775105816e+00  3.2750011630311491e+00  3.2588278574323608e+00  3.2518312615965939e+00  3.2644384547867418e+00  3.1657820531554997e+00  3.2786347133856437e+00  3.4462143685709483e+00  3.2582623284100536e+00  3.3075462101728399e+00  3.3270515342966149e+00  3.1067796662915939e+00  3.1868501082613481e+00  3.2083686047812767e+00  3.1660827495962618e+00  3.3318960225191314e+00  3.2630453671581710e+00  3.2767374104667706e+00  3.4562714811125814e+00  3.4483283430666156e+00  3.3129643562160269e+00  3.4561191853324988e+00  3.2629921972589568e+00  3.2683697906876903e+00  3.4085228291288754e+00  3.3906856777431034e+00  3.3326223233457597e+00  3.4660084481811766e+00  3.5143091565358304e+00  3.4950317924813632e+00  3.4878938856219386e+00  3.5030608935820911e+00  3.5014324667965098e+00  3.2764753305472860e+00  3.2658516528749408e+00  3.2737747414298264e+00  3.2372281119554809e+00  3.2580248282391562e+00  3.3339661330336714e+00  3.2546601997493085e