<?xml version="1.0"?>
<VTKFile type="UnstructuredGrid"  version="0.1"  >
<UnstructuredGrid>
<Piece  NumberOfPoints="679" NumberOfCells="1167">
<Points>
<DataArray  type="Float64"  NumberOfComponents="3"  format="ascii">0 1 0  0 0 0  5 0.125 0  12 0.125 0  12 0.875 0  5 0.875 0  5 -0.125 0  12 -0.125 0  -2.5 1 0  -2.5 0 0  8.5 0.875 0  8.5 0.125 0  8.5 -0.125 0  2.5 0.0625 0  2.5 0.9375 0  2.5 -0.0625 0  10.25 0.125 0  10.25 0.875 0  10.25 -0.125 0  6.75 0.125 0  6.75 0.875 0  6.75 -0.125 0  -1.25 0 0  -1.25 1 0  1.25 0.03125 0  1.25 0.96875 0  1.25 -0.03125 0  3.75 0.90625 0  3.75 0.09375 0  3.75 -0.09375 0  7.625 0.875 0  7.625 0.125 0  7.625 -0.125 0  9.375 0.125 0  9.375 0.875 0  9.375 -0.125 0  11.125 0.875 0  11.125 0.125 0  11.125 -0.125 0  5.875 0.125 0  5.875 0.875 0  5.875 -0.125 0  -0.625 1 0  -0.625 0 0  -1.875 1 0  -1.875 0 0  0.625 0.015625 0  0.625 0.984375 0  0.625 -0.015625 0  1.875 0.953125 0  1.875 0.046875 0  1.875 -0.046875 0  3.125 0.078125 0  3.125 0.921875 0  3.125 -0.078125 0  4.375 0.109375 0  4.375 0.890625 0  4.375 -0.109375 0  -2.5 0.5 0  -1.5625 0.5 0  -0.9375 0.5 0  0 0.5 0  9.8125 0.875 0  9.8125 0.125 0  9.8125 -0.125 0  8.0625 0.125 0  8.0625 0.875 0  8.0625 -0.125 0  6.3125 0.875 0  6.3125 0.125 0  6.3125 -0.125 0  7.1875 0.125 0  7.1875 0.875 0  7.1875 -0.125 0  8.9375 0.125 0  8.9375 0.875 0  8.9375 -0.125 0  11.5625 0.125 0  11.5625 0.875 0  11.5625 -0.125 0  10.6875 0.125 0  10.6875 0.875 0  10.6875 -0.125 0  5.4375 0.125 0  5.4375 0.875 0  5.4375 -0.125 0  0.9255859375 0.5 0  1.5509765625 0.5 0  2.1763671875 0.5 0  2.8017578125 0.5 0  3.4271484375 0.5 0  4.0525390625 0.5 0  4.6779296875 0.5 0  -2.03125 0.4453125 0  -0.46875 0.5546875 0  0.46279296875 0.5482610887096775 0  6.53125 0.5 0  8.28125 0.5 0  10.03125 0.5 0  9.15625 0.5 0  9.59375 0.5 0  7.40625 0.5 0  7.84375 0.5 0  5.65625 0.5 0  6.09375 0.5 0  6.96875 0.5 0  8.71875 0.5 0  10.90625 0.5 0  11.34375 0.5 0  12 0.5 0  10.46875 0.5 0  5.21875 0.5 0  -0.3125 0 0  -2.1875 1 0  0.3125 0.0078125 0  0.3125 -0.0078125 0  4.6875 0.1171875 0  4.6875 -0.1171875 0  4.0625 -0.1015625 0  4.0625 0.1015625 0  11.671875 0.5598958333333333 0  3.4375 0.0859375 0  3.4375 -0.0859375 0  0.3125 0.9921875 0  -0.3125 1 0  0 0.75 0  -2.1875 0 0  2.8125 -0.0703125 0  2.8125 0.0703125 0  2.1875 0.0546875 0  2.1875 -0.0546875 0  1.5625 -0.0390625 0  1.5625 0.0390625 0  0.9375 0.0234375 0  0.9375 -0.0234375 0  3.73984375 0.4170906419020433 0  3.114453125 0.4048161259403936 0  2.4890625 0.3928599766322544 0  1.23828125 0.3697754313151042 0  1.863671875 0.3811892594962283 0  4.365234375 0.4297217285156248 0  4.6875 0.8828125 0  4.0625 0.8984375 0  3.4375 0.9140625 0  2.8125 0.9296875 0  2.1875 0.9453125 0  1.5625 0.9609375 0  0.9375 0.9765625 0  -1.25 0.65234375 0  -1.284375 0.326171875 0  -1.5625 0 0  -0.9375 1 0  -0.9375 0 0  -1.5625 1 0  1.180063111322978 0.6705163721609514 0  -0.2592233009708738 0.3143583131067961 0  -0.78125 0.75 0  -0.78125 0.25 0  -1.71875 0.75 0  -1.71875 0.25 0  -2.5 0.25 0  -2.240776699029126 0.6856416868932038 0  0 0.25 0  1.793975342041362 0.6686497698910049 0  0.77529296875 0.7421875 0  0.77529296875 0.2578124999999999 0  0.4626132351690542 0.2571893432378328 0  11.78125 0.125 0  2.408259633289382 0.6669125011085911 0  4.94833984375 0.4064371744791667 0  3.02291555839192 0.6653202966227416 0  -1.977968867911884 0.7032653452942401 0  -0.5153290628130948 0.2423724607418158 0  0.2440428240804185 0.4028602362749875 0  3.63794244804895 0.6638914985427095 0  -1.036405127827206 0.2643561701079966 0  -0.2229817708333333 0.625 0  -2.231378424657534 0.2654644691780822 0  3.90126953125 0.703125 0  4.253339300144138 0.6626476557778895 0  0.2340308970670583 0.6551739380802853 0  5.21875 -0.125 0  5.21875 0.125 0  10.46875 -0.125 0  10.46875 0.125 0  10.90625 -0.125 0  10.90625 0.125 0  11.34375 -0.125 0  11.34375 0.125 0  8.71875 -0.125 0  8.71875 0.125 0  6.96875 -0.125 0  6.96875 0.125 0  5.65625 -0.125 0  5.65625 0.125 0  6.09375 -0.125 0  6.09375 0.125 0  6.53125 -0.125 0  6.53125 0.125 0  7.40625 -0.125 0  7.40625 0.125 0  7.84375 -0.125 0  7.84375 0.125 0  8.28125 -0.125 0  8.28125 0.125 0  9.15625 -0.125 0  9.15625 0.125 0  9.59375 -0.125 0  9.59375 0.125 0  10.03125 -0.125 0  10.03125 0.125 0  -2.5 0.75 0  4.83896484375 0.6875 0  4.52646484375 0.6953125 0  3.277479590693142 0.7109023657014214 0  2.662276228579592 0.7184650669417602 0  2.047661294250319 0.7260130574874921 0  1.433690244587713 0.7335449509165572 0  -1.479229041916168 0.7258724738023952 0  -1.029665898617512 0.7685681883640553 0  1.021098725707922 0.2546126761891596 0  -1.953125 0.22265625 0  -1.796875 0.47265625 0  -0.6971783980582524 0.4763728762135923 0  -0.546875 0.77734375 0  0.4345921950797187 0.7861179426092486 0  0.6941894531249999 0.5241305443548386 0  1.401979490481876 0.205976630724967 0  1.643148310026378 0.2716915007194094 0  2.027035138411359 0.2193757135456343 0  2.65208774772174 0.2328963411304085 0  11.78125 0.875 0  12 0.6875 0  3.277136971491343 0.24655239034629 0  2.27558234261663 0.2796849687216658 0  3.902182407928333 0.2603599328666719 0  2.907961659189136 0.2876770688234784 0  4.52722358920518 0.2743376817927886 0  11.80532725642558 0.3622570170850767 0  11.53842274357442 0.3622570170850767 0  3.540310217828271 0.2956683999769567 0  4.172656752708627 0.3036596805364656 0  -1.5015625 0.2880859375000001 0  11.78125 -0.125 0  10.25 0.3763020833333333 0  10.25334821428571 0.6256510416666666 0  10.46875 0.875 0  10.6875 0.6236979166666666 0  10.68415178571429 0.3743489583333333 0  11.125 0.3763020833333333 0  11.12834821428571 0.6256510416666666 0  11.34375 0.875 0  10.90625 0.875 0  8.5 0.3763020833333333 0  8.503348214285714 0.6256510416666666 0  8.71875 0.875 0  6.75 0.3763020833333333 0  6.753348214285714 0.6256510416666666 0  6.96875 0.875 0  5.21875 0.875 0  5.4375 0.6236979166666666 0  5.434151785714286 0.3743489583333333 0  5.875 0.3763020833333333 0  5.878348214285714 0.6256510416666666 0  6.09375 0.875 0  6.3125 0.6236979166666666 0  6.309151785714286 0.3743489583333333 0  5.65625 0.875 0  7.1875 0.6236979166666666 0  7.184151785714286 0.3743489583333333 0  7.625 0.3763020833333333 0  7.628348214285714 0.6256510416666666 0  7.84375 0.875 0  8.0625 0.6236979166666666 0  8.059151785714286 0.3743489583333333 0  7.40625 0.875 0  8.9375 0.6236979166666666 0  8.934151785714286 0.3743489583333333 0  9.375 0.3763020833333333 0  9.378348214285714 0.6256510416666666 0  9.59375 0.875 0  9.8125 0.6236979166666666 0  9.809151785714286 0.3743489583333333 0  9.15625 0.875 0  10.03125 0.875 0  8.28125 0.875 0  6.53125 0.875 0  11.48214285714286 0.6705729166666666 0  5.061295237873556 0.6594534720929075 0  -2.239238167985573 0.4754823834752219 0  1.345517491262281 0.5465399476507432 0  0.9764251288388395 0.699275989888548 0  0.2057428682116617 0.1927680154344021 0  -0.191734984129113 0.8306437698386088 0  -0.15625 0 0  -2.34375 1 0  0.15625 0.99609375 0  4.84375 0.12109375 0  4.84375 -0.12109375 0  4.764292708786836 0.3120579484104501 0  1.952996331039637 0.5550259395229645 0  5.109375 0.2905366144765926 0  -1.124347644480009 0.4398459561477482 0  4.53125 -0.11328125 0  4.53125 0.11328125 0  1.09375 0.97265625 0  -1.40625 0 0  -2.34375 0 0  4.21875 0.10546875 0  4.21875 -0.10546875 0  9.115734905149509 0.3125 0  7.365734905149507 0.3125 0  5.615734905149507 0.3125 0  10.86573490514951 0.3125 0  12 0.3125 0  11.35714937924592 0.3125 0  10.43042767237103 0.3125 0  10.06957232762897 0.3125 0  10.43377588665675 0.6875 0  10.86792767237103 0.6875 0  8.680427672371032 0.3125 0  8.319572327628968 0.3125 0  8.683775886656745 0.6875 0  6.930427672371032 0.3125 0  6.569572327628968 0.3125 0  6.933775886656746 0.6875 0  5.24916394247692 0.6875 0  6.055427672371032 0.3125 0  6.058775886656746 0.6875 0  5.617927672371032 0.6875 0  7.805427672371032 0.3125 0  7.808775886656746 0.6875 0  7.367927672371032 0.6875 0  9.555427672371032 0.3125 0  9.558775886656745 0.6875 0  9.117927672371032 0.6875 0  9.992927672371032 0.6875 0  8.242927672371032 0.6875 0  6.492927672371032 0.6875 0  1.627003620721269 0.7742191663805776 0  0.59476506159117 0.6852213734197761 0  2.561553331088321 0.5631718968439406 0  3.90625 0.09765625 0  3.90625 -0.09765625 0  2.238171784331315 0.7587665114364124 0  2.840634163519511 0.6785804221553393 0  3.456683456342307 0.6795179388628696 0  -2.118232188681224 0.8265668954747506 0  3.59375 0.08984375 0  3.59375 -0.08984375 0  -0.3730689944866288 0.8290734481438197 0  -1.40625 1 0  -1.320649221029402 0.826171875 0  11.29919330741612 0.6957779759497555 0  4.076480260358367 0.675717868959488 0  0.618757494688623 0.3556502687271536 0  3.28125 -0.08203125 0  3.28125 0.08203125 0  11.84758391203704 0.59375 0  0.1639929537681163 0.8185275392742118 0  -1.328125 0.1566637818113773 0  -1.3691162109375 0.5 0  3.171154083776095 0.5710746629879037 0  2.96875 0.07421875 0  2.96875 -0.07421875 0  1.415491796641533 0.3831789126979084 0  -2.371885436085025 0.3653621420506843 0  -1.073864047773071 0.6033018746614475 0  0.616905358714157 0.185546328193728 0  -1.157660141930883 0.1438595393861126 0  2.65625 0.06640625 0  2.65625 -0.06640625 0  11.671875 0.2559497755632374 0  1.074322090529549 0.4166109695554191 0  1.232303364754384 0.2001029446900817 0  2.96875 0.92578125 0  -0.6497140600961316 0.6406852472525567 0  5.283561431319673 0.2867248308715458 0  1.702730990095631 0.4285058146849986 0  1.85959439144336 0.2137020407725821 0  2.037850600083158 0.393665441213882 0  2.34375 0.05859375 0  2.34375 -0.05859375 0  11.64157056051587 0.7259114583333335 0  11.671875 0 0  10.140625 0 0  9.921875 0 0  9.703125 0 0  9.484375 0 0  9.265625 0 0  9.046875 0 0  8.390625 0 0  8.171875 0 0  7.953125 0 0  7.734375 0 0  7.515625 0 0  7.296875 0 0  6.640625 0 0  6.421875 0 0  6.203125 0 0  5.984375 0 0  5.765625 0 0  5.546875 0 0  7.078125 0 0  6.859375 0 0  8.828125 0 0  8.609375 0 0  11.453125 0 0  11.234375 0 0  11.015625 0 0  10.796875 0 0  10.578125 0 0  10.359375 0 0  
[...]
<CellData  Scalars="f">
<DataArray  type="Float64"  Name="f"  format="ascii">1 1 2 1 2 1 1 2 2 2 2 2 0 1 1 1 1 1 2 1 1 2 1 1 2 2 1 2 2 2 1 1 2 2 1 2 2 2 1 1 0 0 1 2 2 1 1 1 1 1 0 0 0 1 1 1 1 1 1 1 1 1 1 1 1 1 1 1 1 1 1 1 1 1 1 1 1 1 1 1 1 1 1 0 1 1 1 1 1 1 1 1 1 1 1 1 1 1 1 1 1 1 1 1 1 1 1 1 1 1 1 1 1 1 0 0 0 0 0 0 1 2 1 2 2 1 1 1 2 0 1 0 0 0 1 2 2 1 1 2 1 2 2 1 1 1 1 1 1 1 1 1 1 1 1 1 1 1 1 1 1 1 1 1 0 0 0 0 0 0 0 0 1 1 0 0 0 0 0 0 0 0 0 0 0 0 1 1 1 1 1 1 1 1 1 1 1 1 1 1 1 1 1 0 0 0 0 1 1 1 0 0 0 0 0 0 1 1 1 1 1 1 1 2 2 2 1 2 2 2 1 2 2 2 1 2 2 2 1 2 2 2 1 2 2 2 1 2 2 2 1 2 2 2 1 2 2 2 1 2 2 2 1 2 2 2 1 2 2 2 1 2 2 2 1 2 2 2 1 2 2 2 0 1 1 1 1 1 1 1 1 1 1 1 0 0 2 1 0 0 0 0 0 0 0 1 1 1 1 1 1 1 1 1 1 1 1 1 1 1 1 1 1 1 1 1 1 1 1 1 1 1 1 1 1 1 1 0 0 2 2 1 1 1 1 1 1 1 1 1 1 1 1 1 1 1 1 1 1 1 1 1 1 1 1 1 1 1 1 1 1 1 1 1 1 1 1 1 1 1 1 1 1 1 1 1 1 1 1 1 1 1 1 1 1 1 1 1 1 1 1 1 1 1 1 1 1 1 1 1 1 1 1 1 1 1 1 1 1 1 1 1 1 0 0 1 1 1 1 0 1 0 0 0 1 1 2 2 2 1 1 1 1 1 1 0 0 1 2 2 2 1 1 0 0 0 2 2 2 1 1 1 1 1 1 1 1 1 2 1 1 1 1 1 1 1 1 1 1 1 1 1 1 1 1 1 1 1 1 1 1 1 1 1 1 1 1 1 1 1 1 1 1 1 1 1 1 1 1 1 1 1 1 1 1 1 1 1 1 1 1 1 2 2 2 1 1 1 1 1 0 0 2 2 2 0 0 0 0 0 1 1 1 1 1 1 1 2 2 2 1 1 1 1 0 0 0 0 1 1 2 2 2 1 1 0 0 0 0 1 1 0 2 2 2 1 1 1 1 1 1 1 1 0 0 1 1 1 1 1 1 1 1 2 2 2 1 1 2 2 2 2 2 2 2 2 2 2 2 2 2 2 2 2 2 2 2 2 2 2 2 2 2 2 2 2 2 2 2 2 2 2 2 2 2 2 2 2 2 2 2 2 2 2 2 2 2 2 2 2 2 2 2 2 2 2 2 2 2 2 2 2 0 0 0 0 1 1 1 1 1 1 1 2 2 2 1 1 1 1 1 1 1 1 2 2 2 1 1 1 1 0 0 0 0 1 1 1 1 1 1 1 1 2 2 2 1 1 1 1 1 1 1 1 1 1 0 0 0 0 0 0 0 0 0 0 0 0 0 0 1 1 1 1 1 1 1 1 1 1 1 1 1 1 1 1 1 1 1 1 1 1 1 1 1 1 1 1 1 1 1 1 0 0 1 1 0 0 1 1 1 1 1 1 1 1 1 1 1 1 1 2 2 1 1 1 0 0 1 1 1 1 1 1 1 1 1 1 1 1 1 1 1 1 1 1 1 1 1 1 1 1 1 1 2 1 2 1 1 1 0 0 0 0 0 0 0 0 0 0 0 0 0 0 0 0 1 1 1 1 1 1 1 1 0 0 0 0 1 1 0 0 1 1 1 1 1 1 1 1 1 1 0 0 1 1 0 0 0 0 0 0 0 0 0 0 0 0 0 0 0 0 0 0 0 0 0 0 0 0 0 0 0 0 0 0 1 1 2 2 1 1 1 1 1 1 1 1 0 0 1 1 1 1 1 1 1 1 0 0 1 1 1 1 1 1 1 1 1 1 1 1 1 1 2 2 0 0 0 0 1 1 0 0 1 1 1 1 1 1 1 1 2 2 1 1 1 1 1 1 1 1 1 1 1 1 1 1 1 1 1 1 1 1 1 1 1 1 1 1 1 1 1 1 1 1 1 1 1 1 1 1 1 1 1 1 1 1 2 2 1 1 2 2 1 1 1 1 1 1 1 1 1 1 1 1 1 1 1 1 1 1 1 1 1 1 1 1 1 1 1 1 1 1 0 0 1 1 1 1 1 1 1 1 1 1 0 0 1 1 1 1 2 2 1 1 1 1 1 1 1 1 1 1 1 1 1 1 1 1 1 1 1 1 1 1 1 1 1 1 1 1 1 1 1 1 1 1 1 1 1 2 2 1 1 2 2 1 1 2 1 2 1 1 2 2 2 2 2 2 2 2 2 1 1 1 1 2 2 2 1 1 2 2 2 2 2 2 1 1 1 2 2 2 1 2 2 2 1 1 1 2 2 2 1 1 1 1 1 1 1 1 1 1 2 2 2 1 1 2 2 2 1 1 2 2 2 </DataArray>
</CellData>
</Piece>
</UnstructuredGrid>
</VTKFile>