<?xml version="1.0"?>
<VTKFile type="UnstructuredGrid"  version="0.1"  >
<UnstructuredGrid>
<Piece  NumberOfPoints="2577" NumberOfCells="4963">
<Points>
<DataArray  type="Float64"  NumberOfComponents="3"  format="ascii">-0.4987820251299121 0.03487823687206276 0  -0.4987820251299122 -0.03487823687206242 0  -0.4890738003669028 -0.1039558454088795 0  -0.4698463103929542 -0.1710100716628343 0  -0.4414737964294634 -0.2347357813929454 0  -0.4045084971874738 -0.2938926261462365 0  -0.3596699001693255 -0.3473291852294987 0  -0.307830737662829 -0.3940053768033611 0  -0.2500000000000002 -0.4330127018922192 0  -0.1873032967079561 -0.4635919272833937 0  -0.1209609477998339 -0.4851478631379982 0  -0.05226423163382668 -0.4972609476841367 0  0.01744974835125064 -0.4996954135095479 0  0.08682408883346499 -0.4924038765061041 0  0.1545084971874736 -0.4755282581475768 0  0.2191855733945387 -0.4493970231495835 0  0.2795964517353731 -0.414518786277521 0  0.3345653031794289 -0.3715724127386973 0  0.3830222215594889 -0.3213938048432698 0  0.4240240480782127 -0.2649596321166029 0  0.4567727288213005 -0.2033683215379001 0  0.4806308479691593 -0.1378186779084999 0  0.4951340343707851 -0.06958655048003294 0  0.5 0 0  0.4951340343707852 0.06958655048003272 0  0.4806308479691594 0.1378186779084996 0  0.4567727288213004 0.2033683215379001 0  0.424024048078213 0.2649596321166025 0  0.383022221559489 0.3213938048432696 0  0.3345653031794291 0.3715724127386971 0  0.2795964517353734 0.4145187862775209 0  0.2191855733945387 0.4493970231495835 0  0.1545084971874737 0.4755282581475768 0  0.08682408883346521 0.492403876506104 0  0.01744974835125054 0.4996954135095479 0  -0.05226423163382667 0.4972609476841367 0  -0.1209609477998339 0.4851478631379982 0  -0.187303296707956 0.4635919272833937 0  -0.2499999999999999 0.4330127018922194 0  -0.3078307376628291 0.394005376803361 0  -0.3596699001693256 0.3473291852294986 0  -0.4045084971874737 0.2938926261462366 0  -0.4414737964294634 0.2347357813929455 0  -0.4698463103929542 0.1710100716628344 0  -0.4890738003669028 0.1039558454088797 0  1 0 0  0.9975640502598242 0.0697564737441253 0  0.9902680687415704 0.1391731009600654 0  0.9781476007338057 0.2079116908177593 0  0.9612616959383189 0.2756373558169992 0  0.9396926207859084 0.3420201433256687 0  0.9135454576426009 0.4067366430758002 0  0.882947592858927 0.4694715627858908 0  0.848048096156426 0.5299192642332049 0  0.8090169943749475 0.5877852522924731 0  0.766044443118978 0.6427876096865393 0  0.7193398003386512 0.6946583704589973 0  0.6691306063588582 0.7431448254773941 0  0.6156614753256583 0.788010753606722 0  0.5591929034707468 0.8290375725550417 0  0.5000000000000001 0.8660254037844386 0  0.4383711467890775 0.898794046299167 0  0.374606593415912 0.9271838545667874 0  0.3090169943749475 0.9510565162951535 0  0.2419218955996679 0.9702957262759965 0  0.1736481776669304 0.984807753012208 0  0.1045284632676535 0.9945218953682733 0  0.03489949670250108 0.9993908270190958 0  -0.03489949670250073 0.9993908270190958 0  -0.1045284632676533 0.9945218953682734 0  -0.1736481776669303 0.984807753012208 0  -0.2419218955996678 0.9702957262759965 0  -0.3090169943749473 0.9510565162951536 0  -0.3746065934159121 0.9271838545667874 0  -0.4383711467890775 0.8987940462991669 0  -0.4999999999999998 0.8660254037844387 0  -0.5591929034707467 0.8290375725550417 0  -0.6156614753256583 0.788010753606722 0  -0.6691306063588582 0.7431448254773942 0  -0.7193398003386512 0.6946583704589971 0  -0.7660444431189779 0.6427876096865395 0  -0.8090169943749473 0.5877852522924732 0  -0.848048096156426 0.5299192642332049 0  -0.8829475928589268 0.4694715627858911 0  -0.9135454576426008 0.4067366430758004 0  -0.9396926207859083 0.3420201433256689 0  -0.9612616959383187 0.2756373558169997 0  -0.9781476007338057 0.2079116908177593 0  -0.9902680687415703 0.1391731009600657 0  -0.9975640502598242 0.06975647374412552 0  -1 1.224646799147353e-16 0  -0.9975640502598243 -0.06975647374412483 0  -0.9902680687415703 -0.1391731009600655 0  -0.9781476007338057 -0.2079116908177591 0  -0.9612616959383189 -0.275637355816999 0  -0.9396926207859084 -0.3420201433256687 0  -0.9135454576426011 -0.4067366430757998 0  -0.8829475928589269 -0.4694715627858909 0  -0.8480480961564261 -0.5299192642332048 0  -0.8090169943749476 -0.587785252292473 0  -0.766044443118978 -0.6427876096865393 0  -0.7193398003386511 -0.6946583704589974 0  -0.6691306063588585 -0.743144825477394 0  -0.6156614753256581 -0.7880107536067221 0  -0.5591929034707472 -0.8290375725550414 0  -0.5000000000000004 -0.8660254037844384 0  -0.4383711467890777 -0.8987940462991668 0  -0.3746065934159123 -0.9271838545667873 0  -0.3090169943749476 -0.9510565162951535 0  -0.2419218955996678 -0.9702957262759965 0  -0.1736481776669303 -0.984807753012208 0  -0.1045284632676534 -0.9945218953682734 0  -0.03489949670250165 -0.9993908270190957 0  0.03489949670250128 -0.9993908270190958 0  0.104528463267653 -0.9945218953682734 0  0.17364817766693 -0.9848077530122081 0  0.2419218955996675 -0.9702957262759966 0  0.3090169943749472 -0.9510565162951536 0  0.374606593415912 -0.9271838545667874 0  0.4383711467890774 -0.898794046299167 0  0.5000000000000001 -0.8660254037844386 0  0.5591929034707462 -0.8290375725550421 0  0.6156614753256585 -0.7880107536067218 0  0.6691306063588578 -0.7431448254773946 0  0.7193398003386509 -0.6946583704589976 0  0.7660444431189778 -0.6427876096865396 0  0.8090169943749473 -0.5877852522924734 0  0.8480480961564254 -0.5299192642332058 0  0.8829475928589269 -0.4694715627858908 0  0.913545457642601 -0.4067366430758002 0  0.9396926207859084 -0.3420201433256686 0  0.9612616959383187 -0.2756373558169998 0  0.9781476007338056 -0.2079116908177599 0  0.9902680687415703 -0.1391731009600659 0  0.9975640502598243 -0.06975647374412476 0  -1.1 1.1 0  -1.1 -1.1 0  1.1 -1.1 0  1.1 1.1 0  1.1 0 0  0 1.1 0  -1.1 0 0  0 -1.1 0  1.1 0.55 0  1.1 -0.55 0  -0.55 1.1 0  0.55 1.1 0  -1.1 -0.55 0  -1.1 0.55 0  0.55 -1.1 0  -0.55 -1.1 0  1.1 0.275 0  1.1 -0.275 0  -0.275 1.1 0  0.275 1.1 0  -1.1 -0.275 0  -1.1 0.275 0  0.275 -1.1 0  -0.275 -1.1 0  1.1 0.1375 0  1.1 -0.1375 0  -0.1375 1.1 0  0.1375 1.1 0  -1.1 -0.1375 0  -1.1 0.1375 0  0.1375 -1.1 0  -0.1375 -1.1 0  5.551115123125783e-17 -1.665334536937735e-16 0  -0.8250000000000001 -1.1 0  -0.8250000000000001 1.1 0  0.8250000000000001 1.1 0  0.8250000000000001 -1.1 0  -1.1 -0.8250000000000001 0  1.1 0.8250000000000001 0  1.1 -0.8250000000000001 0  -1.1 0.8250000000000001 0  0.5913683108017449 -0.4620275612009603 0  0.649914963473963 0.3752285791120578 0  0.4606240494606415 0.5895718976940387 0  0.181000513545807 -0.72595340868972 0  -0.5213113466312544 0.5398337023596473 0  -0.748177477268642 3.677613769070831e-16 0  -0.6834941358692682 -0.3043111955291684 0  -0.4823845629070328 -0.574883535856444 0  0.7463460753897364 -0.07844413349737717 0  0.1810005135458073 0.7259534086897199 0  -0.2311995552845864 0.7115590651016113 0  -0.6834941358692682 0.3043111955291685 0  -0.2566714648155866 -0.7051990537991649 0  -0.1676911387756446 0.1862398773501902 0  0.09388033613439234 0.2323619857605368 0  0.25 0.01748170298587768 0  -0.1919787613936808 -0.1610893078793085 0  0.1253052372601464 -0.2170350373890467 0  0.4100151197949826 -0.6310439038757515 0  0.7462612140915066 0.1586227177749866 0  -0.04055708751545835 -0.7729701257972625 0  -0.8714499137803688 0.8714499137803687 0  0.8475624786996654 0.8776766395249775 0  -0.8475624786996656 -0.8776766395249775 0  0.8475624786996647 -0.8776766395249778 0  0.6549247837405074 -0.2646067885805835 0  -0.02452403903941524 0.7022765934528045 0  -0.6971570973421019 0.9595544245098317 0  0.9457715379788133 0.7171099473715343 0  -1.1 0.6875 0  -0.9457715379788133 -0.7171099473715342 0  0.945771537978813 -0.7171099473715348 0  -0.6875 -1.1 0  0.6875 1.1 0  0.6875 -1.1 0  -0.3021034145256841 0.04245786604388235 0  -0.05297525897811498 -0.3004376231321225 0  -0.6493495559083107 -0.4889583914999844 0  -0.4184043150681578 0.6969024203637967 0  1.1 -0.9625000000000001 0  1.1 0.9625000000000001 0  -0.9625000000000001 -1.1 0  0.2887013349030826 -0.1535052227012283 0  -0.056778523551556 0.3220070083626767 0  0.2645279155006937 0.1921907804558624 0  -0.9625000000000001 1.1 0  0.6922516407240482 -0.9346405102034137 0  0.6809472320731365 0.9372434590203537 0  -0.6809472320731367 -0.9372434590203537 0  0.06398867824008851 0.8378070690880577 0  -0.1172078581063797 0.8339772447956406 0  -0.5066579812390133 -0.4168691543844079 0  -0.3616253213577449 0.5474571478967749 0  -0.8028623003113451 -0.1706536500486641 0  -0.6435813133346415 -0.1485334625034662 0  0.3598144769124489 0.7377290042694387 0  0.2791822551364582 0.5985953263881472 0  -0.6535024333571912 0.1389062302773976 0  -0.8110749424437763 0.1957563045411092 0  -0.6949649763371784 0.4687597954466224 0  0.6229628706227364 0.560918288156104 0  -0.9297411857248856 0.7099174590703911 0  0.9625000000000001 1.1 0  0.9625000000000001 -1.1 0  -1.1 -0.9625000000000001 0  -1.1 0.9625000000000001 0  0.7388223103480156 -0.4005571441608962 0  0.8083621931560332 -0.2626527982464245 0  -0.155403738656764 -0.009737379389236772 0  -0.03944258252365207 -0.1479345038122513 0  -0.1124826985140496 -0.6379210831042694 0  0.3343324134502086 -0.7721815783645656 0  0.6086499783436645 0.2271435919934762 0  0.6451580408601226 0.04511384499706936 0  0.5687769439189224 -0.6195906411664603 0  -0.4001602488812527 -0.7525919704505459 0  0.8457217097464697 0.0401248801850398 0  0.7889254854389035 0.307330107167108 0  0.4993777703025682 0.4330411172771549 0  -0.5409883622077387 0.3797819883575305 0  -0.1783153826881871 -0.8337981003274648 0  0.04893952783735875 -0.6491733978417491 0  0.09057598678368259 -0.8453775254020186 0  0.2396424741704135 -0.593135937339345 0  -0.3077981704318665 0.1923336432766373 0  -0.33157036934951 -0.1476246396327481 0  -0.1945783708747696 -0.3026864137415663 0  0.07931900866494118 -0.3509819116997642 0  -1.1 -0.6875 0  -1.1 -0.4125 0  1.1 0.4125 0  1.1 -0.4125 
[...]
<PointData  Vectors="f_138"> 
<DataArray  type="Float64"  Name="f_138"  NumberOfComponents="3" format="ascii">1.2097220253073163e-01 -8.4595767679927578e-03 0.0000000000000000e+00  9.2062773475824367e-02 6.4379066299096290e-03 0.0000000000000000e+00  5.2132643289524376e-02 1.1081018349945767e-02 0.0000000000000000e+00  2.1084322975107933e-03 7.6750839519455988e-04 0.0000000000000000e+00  -5.4777536074201751e-02 -2.9125686138312269e-02 0.0000000000000000e+00  -1.1052350192123855e-01 -8.0300335888134178e-02 0.0000000000000000e+00  -1.4954339720409335e-01 -1.4441185700896259e-01 0.0000000000000000e+00  -1.5277023846501125e-01 -1.9553760229302727e-01 0.0000000000000000e+00  -1.1694780514764359e-01 -2.0255976371403267e-01 0.0000000000000000e+00  -6.5228560278441094e-02 -1.6144682420091722e-01 0.0000000000000000e+00  -2.3840885489549338e-02 -9.5620490123422899e-02 0.0000000000000000e+00  -2.9550653178398289e-03 -2.8115888312705992e-02 0.0000000000000000e+00  -1.0259240370861229e-03 2.9376198936582266e-02 0.0000000000000000e+00  -1.2881723063805934e-02 7.3053577921258855e-02 0.0000000000000000e+00  -3.3346281316495072e-02 1.0263187620317925e-01 0.0000000000000000e+00  -5.8127838406909167e-02 1.1917980431306423e-01 0.0000000000000000e+00  -8.3783463484940826e-02 1.2421676746963066e-01 0.0000000000000000e+00  -1.0755789606958915e-01 1.1945325511861038e-01 0.0000000000000000e+00  -1.2718475406898622e-01 1.0672114356527639e-01 0.0000000000000000e+00  -1.4079025173360785e-01 8.7975842348944580e-02 0.0000000000000000e+00  -1.4684061791017011e-01 6.5377050022236857e-02 0.0000000000000000e+00  -1.4403494526606769e-01 4.1301458539615629e-02 0.0000000000000000e+00  -1.3131825832535715e-01 1.8455115733886470e-02 0.0000000000000000e+00  -1.0791602645213935e-01 6.0914830343374668e-08 0.0000000000000000e+00  -7.3448080190173348e-02 -1.0322441196870072e-02 0.0000000000000000e+00  -2.8253178826401510e-02 -8.1017470431764410e-03 0.0000000000000000e+00  2.5820442312946789e-02 1.1495320542857528e-02 0.0000000000000000e+00  8.3575459594260840e-02 5.2224470434425234e-02 0.0000000000000000e+00  1.3338727365981867e-01 1.1192448504463633e-01 0.0000000000000000e+00  1.5648706223939696e-01 1.7379648387604979e-01 0.0000000000000000e+00  1.3875801358435402e-01 2.0571735204646313e-01 0.0000000000000000e+00  9.1131468314120764e-02 1.8684792175035445e-01 0.0000000000000000e+00  4.2214594360713835e-02 1.2992219982145947e-01 0.0000000000000000e+00  1.0772043886584006e-02 6.1092519264327724e-02 0.0000000000000000e+00  -7.8704479367540750e-05 -2.2436756532251854e-03 0.0000000000000000e+00  5.5707816772314084e-03 -5.3002981177490818e-02 0.0000000000000000e+00  2.2328534891550428e-02 -8.9554211705248368e-02 0.0000000000000000e+00  4.5431937135939099e-02 -1.1244826658912303e-01 0.0000000000000000e+00  7.1032671218103985e-02 -1.2303321096061336e-01 0.0000000000000000e+00  9.6050962540752904e-02 -1.2293963386558565e-01 0.0000000000000000e+00  1.1799354698639693e-01 -1.1394435595650430e-01 0.0000000000000000e+00  1.3483577001547881e-01 -9.7962931132170611e-02 0.0000000000000000e+00  1.4484075277632949e-01 -7.7014424074268228e-02 0.0000000000000000e+00  1.4659199216116711e-01 -5.3355859199148266e-02 0.0000000000000000e+00  1.3894895098523932e-01 -2.9534267384996989e-02 0.0000000000000000e+00  -1.6409946444428998e-05 7.3868766285472638e-08 0.0000000000000000e+00  -3.6919556691298811e-06 -6.6370332586772748e-08 0.0000000000000000e+00  -8.3457043254003784e-07 -3.3605699886391582e-07 0.0000000000000000e+00  -3.3485733931887445e-07 8.9716830077991353e-08 0.0000000000000000e+00  -2.4171939750879027e-06 -5.9722883761913023e-07 0.0000000000000000e+00  -4.6723583387031229e-07 -1.8272704120164560e-07 0.0000000000000000e+00  -1.1235751324106112e-06 -5.6644321734862431e-07 0.0000000000000000e+00  1.8433313488240354e-06 1.0719177126019265e-06 0.0000000000000000e+00  1.8103475806696347e-06 1.0141574776241930e-06 0.0000000000000000e+00  2.6666065646963221e-07 2.6930526158561204e-07 0.0000000000000000e+00  -1.2537212146404688e-06 -1.0820433732043887e-06 0.0000000000000000e+00  7.2020383506255688e-06 7.2442539610860378e-06 0.0000000000000000e+00  5.1263204761055764e-06 1.1721033124093011e-05 0.0000000000000000e+00  -1.8678237194782957e-06 1.9557580208138041e-05 0.0000000000000000e+00  -1.1512941821573423e-06 -4.1641053420251929e-05 0.0000000000000000e+00  -2.0788784419526369e-05 2.9763329243002133e-04 0.0000000000000000e+00  6.9639028208595048e-05 -1.2941666960894563e-03 0.0000000000000000e+00  5.0755920594153850e-05 -1.7037316848269718e-03 0.0000000000000000e+00  8.1692145815206972e-05 -2.6015252764896644e-03 0.0000000000000000e+00  4.1088873745386681e-05 -7.2638379972085644e-03 0.0000000000000000e+00  -1.7164732634967691e-05 2.3019499460712680e-03 0.0000000000000000e+00  5.1424727165238891e-06 -1.4347030996818763e-02 0.0000000000000000e+00  1.5511301971303409e-05 -3.9920755299446060e-02 0.0000000000000000e+00  1.0025769005822254e-05 -3.1695757576681714e-02 0.0000000000000000e+00  1.2716609609627331e-05 -3.2783232672870803e-02 0.0000000000000000e+00  1.2161398803060472e-04 -2.1960244021416529e-02 0.0000000000000000e+00  -2.1112489448452105e-05 2.3607531115617045e-03 0.0000000000000000e+00  -1.4154273501741618e-05 -2.2340443636237981e-04 0.0000000000000000e+00  4.9239331075935148e-05 -1.2359576197821744e-03 0.0000000000000000e+00  -1.1901206218874623e-05 2.0870956938066166e-04 0.0000000000000000e+00  1.0014218341047695e-05 -5.4099153584326705e-05 0.0000000000000000e+00  7.6126234946910845e-06 -8.1556942881121151e-06 0.0000000000000000e+00  5.4008866801073811e-06 -3.7918452007119960e-07 0.0000000000000000e+00  -4.3629820219030628e-06 4.9860026158410309e-06 0.0000000000000000e+00  2.4634360946711595e-06 -2.0765632326330320e-06 0.0000000000000000e+00  -6.0486368840144296e-06 4.8225781268681925e-06 0.0000000000000000e+00  -6.2554222583017939e-06 4.2482889048537279e-06 0.0000000000000000e+00  -1.7289065609801846e-06 1.1682621869398736e-06 0.0000000000000000e+00  6.0012959132404823e-06 -2.8776643010810860e-06 0.0000000000000000e+00  -3.7283254508620654e-06 1.3543272146619289e-06 0.0000000000000000e+00  1.2013308138197048e-05 -4.3927759847455946e-06 0.0000000000000000e+00  1.0432862028387514e-05 -3.0618760886667047e-06 0.0000000000000000e+00  1.1535604817746425e-05 -2.6684523352225240e-06 0.0000000000000000e+00  -6.4586062362057988e-07 -2.9923288354574491e-07 0.0000000000000000e+00  -8.2257112866139349e-06 6.7452914200816233e-07 0.0000000000000000e+00  3.5886841276732215e-06 6.4876948185313963e-08 0.0000000000000000e+00  7.2814919115521232e-07 -1.9228833589159172e-08 0.0000000000000000e+00  1.0582163658183288e-06 2.1129463527318802e-07 0.0000000000000000e+00  3.7019930875403908e-06 7.3585760290018083e-07 0.0000000000000000e+00  5.2416957385933107e-07 2.1688047060983260e-07 0.0000000000000000e+00  -5.1269585977187486e-07 -2.0311773942163888e-07 0.0000000000000000e+00  -1.3412638142294938e-07 -7.0455355313256880e-08 0.0000000000000000e+00  4.2114984602799577e-07 3.1330915795253731e-07 0.0000000000000000e+00  -4.2723858361940627e-06 -2.9181995292690051e-06 0.0000000000000000e+00  2.0977930577909964e-06 1.8918944400147820e-06 0.0000000000000000e+00  -3.5012140944676911e-06 -3.5853755073609984e-06 0.0000000000000000e+00  -5.3586582404671676e-06 -5.1208159920617789e-06 0.0000000000000000e+00  -1.2144711801525259e-05 -8.0457191372605035e-06 0.0000000000000000e+00  -4.7981818650478614e-06 -3.7445550480892950e-05 0.0000000000000000e+00  -1.0307698486476300e-05 2.5433098295128630e-06 0.0000000000000000e+00  -1.2264724839144079e-05 1.6789970715225001e-04 0.0000000000000000e+00  4.0661534642488014e-06 -1.6110587208669952e-04 0.0000000000000000e+00  -7.3330437059829033e-05 1.8778091480294370e-03 0.0000000000000000e+00  -6.0240012687794653e-06 1.8240712728580910e-03 0.0000000000000000e+00  -4.1817547152784495e-05 7.0801946749836607e-03 0.0000000000000000e+00  -5.9111883978749702e-06 -1.6793411999237915e-03 0.0000000000000000e+00  -5.3054922439949868e-05 2.8274644308802010e-02 0.0000000000000000e+00  8.7228060743732641e-06 1.5208086313644786e-02 0.0000000000000000e+00  -1.4723923371415629e-05 3.3419562216673158e-02 0.0000000000000000e+00  -4.1252967982539451e-05 1.1542110726794891e-02 0.0000000000000000e+00  -3.1116578410187901e-05 1.3362528874571813e-02 0.0000000000000000e+00  -1.1694228674348004e-04 1.1136774170303418e-02 0.0000000000000000e+00  -8.6647198112531330e-05 4.5537494374726694e-03 0.0000000000000000e+00  -7.3597926693446094e-05 1.8915608261532552e-03 0.0000000000000000e+00  -4.8809931639665085e-05 1.1916687704372618e-03 0.0000000000000000e+00  -1.9727166906892542e-05 2.9761940712165990e-04 0.0000000000000000e+00  1.1136565536884242e-06 -1.4949978886661794e-05 0.0000000000000000e+00  -2.5035086817844198e-07 -1.2965818358510941e-06 0.0000000000000000e+00  3.2976617517013035e-06 1.9588572420612300e-06 0.0000000000000000e+00  2.9692415655260657e-06 -2.7383442030840761e-06 0.0000000000000000e+00  -8.7072746284154848e-07 8.3655452877566097e-07 0.0000000000000000e+00  -2.1212692823694742e-07 1.6339991922308250e-07 0.0000000000000000e+00  9.1915414632192644e-07 -5.7584593221901130e-07 0.0000000000000000e+00  -4.8619698590434200e-06 2.6203837482241807e-06 0.0000000000000000e+00  5.0387806726250528e-06 -2.1302049163066530e-06 0.0000000000000000e+00  1.2939381114334116e-05 -4.6446489351379678e-06 0.0000000000000000e+00  9.0219251344196365e-07 -4.7066855963080866e-07 0.0000000000000000e+00  -4.1810483513614781e-06 6.5006295988422005e-07 0.0000000000000000e+00  8.8140994867357092e-06 -1.1961346949618876e-06 0.0000000000000000e+00  -1.0028890633257653e-05 4.5779455018744004e-07 0.0000000000000000e+00  2.8409390787126981e-12 3.6253596919979571e-14 0.0000000000000000e+00  2.8409390787126981e-12 3.6253596919979571e-14 0.0000000000000000e+00  1.7909658592383451e-12 -8.2520134654800297e-13 0.0000000000000000e+00  1.7909658592383451e-12 -8.2520134654800297e-13 0.0000000000000000e+00  -7.3379418948516478e-06 -1.4328385769415264e-07 0.0000000000000000e+00  3.0142283284427751e-07 1.8303285843107961e-03 0.0000000000000000e+00  1.4128955493641266e-05 -1.1088984222931152e-07 0.0000000000000000e+00  3.0142283284427751e-07 1.8303285843107961e-03 0.0000000000000000e+00  9.9467692719805411e-09 4.8594295301163419e-09 0.0000000000000000e+00  -1.1758191659663972e-07 5.9203208853059002e-08 0.0000000000000000e+00  -1.5490090759753410e-07 2.7204104323653498e-06 0.0000000000000000e+00  1.6583325456331842e-08 -4.3622301544062654e-07 0.0000000000000000e+00  2.3688987310926736e-09 1.5675582331265542e-09 0.0000000000000000e+00  -1.8525921408073976e-08 1.4479398949847801e-08 0.0000000000000000e+00  1.6583325456331842e-08 -4.3622301544062654e-07 0.0000000000000000e+00  -1.5490090759753410e-07 2.7204104323653498e-06 0.0000000000000000e+00  1.1136913903467331e-06 2.7750193197755591e-07 0.0000000000000000e+00  3.0113864977362132e-06 -7.0503281732111989e-07 0.0000000000000000e+00  5.5808509776347736e-08 1.4147699578069423e-05 0.0000000000000000e+00  -3.5100486591860426e-06 4.5533038885693661e-04 0.0000000000000000e+00  4.8550081221163323e-07 1.0669894114102740e-07 0.0000000000000000e+00  -2.8007533875178115e-06 7.1552876764194544e-07 0.0000000000000000e+00  -3.5100486591860426e-06 4.5533038885693661e-04 0.0000000000000000e+00  5.5808509776347736e-08 1.4147699578069423e-05 0.0000000000000000e+00  1.9187481199041853e-06 1.4342387819561163e-07 0.0000000000000000e+00  -6.7031939172517690e-06 1.1109914808034898e-06 0.0000000000000000e+00  8.5865678426465937e-06 -1.3241136037764243e-03 0.0000000000000000e+00  -1.5554423388571537e-06 2.1998073111335998e-04 0.0000000000000000e+00  -3.5513069350358304e-06 -3.6238655861077456e-07 0.0000000000000000e+00  4.7826572217434041e-06 -4.7159529796834405e-07 0.0000000000000000e+00  -1.5554423388571537e-06 2.1998073111335998e-04 0.0000000000000000e+00  8.5865678426465937e-06 -1.3241136037764243e-03 0.0000000000000000e+00  2.1541276658185607e-11 4.8250313110122107e-12 0.0000000000000000e+00  2.4076207450006883e-10 6.0094232299040819e-11 0.0000000000000000e+00  2.4076207450006883e-10 6.0094232299040819e-11 0.0000000000000000e+00  1.9146355493572706e-11 2.3201615318993928e-09 0.0000000000000000e+00  1.9146355493572706e-11 2.3201615318993928e-09 0.0000000000000000e+00  -1.6237196045463027e-09 -1.2769360080099833e-09 0.0000000000000000e+00  6.5283771400235261e-10 4.7923892125363631e-10 0.0000000000000000e+00  4.5683561659685196e-10 -3.4090405968997382e-10 0.0000000000000000e+00  8.8151541138404170e-10 -7.0270699342328674e-10 0.0000000000000000e+00  -9.8284888468417139e-02 7.6788563736735094e-02 0.0000000000000000e+00  5.1902413307624053e-02 2.9965872391587146e-02 0.0000000000000000e+00  1.1513772665266485e-01 1.4736958545247103e-01 0.0000000000000000e+00  -1.6826921236656321e-02 6.7489887361697157e-02 0.0000000000000000e+00  8.4589027271184600e-02 -8.7594504141323637e-02 0.0000000000000000e+00  8.1325874967649980e-02 1.0628479870869845e-09 0.0000000000000000e+00  -1.9463615457452212e-02 -8.6657597158978309e-03 0.0000000000000000e+00  -1.1685825226903476e-01 -1.3926624288122136e-01 0.0000000000000000e+00  -9.4745396087035819e-02 9.9581496780894469e-03 0.0000000000000000e+00  1.7967240436484004e-02 7.2061066656379374e-02 0.0000000000000000e+00  2.5131111678681803e-02 -7.7346396046034702e-02 0.0000000000000000e+00  1.1065905488056137e-01 -4.9268578968338986e-02 0.0000000000000000e+00  -3.9868999142235476e-02 -1.0953826847176046e-01 0.0000000000000000e+00  5.3906124437948191e-02 -5.9868809433456335e-02 0.0000000000000000e+00  3.2694440397423787e-02 8.0921595429988752e-02 0.0000000000000000e+00  -4.6146570058468915e-02 -3.2268838043593147e-03 0.0000000000000000e+00  -6.6857882332656035e-02 -5.6100426341811137e-02 0.0000000000000000e+00  -3.5602152708618405e-02 6.1664747071323307e-02 0.0000000000000000e+00  -6.0088821542058017e-02 9.2481300113645346e-02 0.0000000000000000e+00  -3.7715527630133812e-02 -8.0166820800328057e-03 0.0000000000000000e+00  -1.8676853642808272e-04 -3.5471785355572043e-03 0.0000000000000000e+00  -1.0331576793175142e-07 1.0440248786560093e-07 0.0000000000000000e+00  -5.9352293015734727e-08 -6.3829338548421412e-08 0.0000000000000000e+00  3.2784675169462061e-08 3.1415875932490688e-08 0.0000000000000000e+00  -9.1656495905592377e-08 1.0967288860543798e-07 0.0000000000000000e+00  -1.2196629703551881e-01 4.9277578933672704e-02 0.0000000000000000e+00  8.5723560431975789e-04 -2.4550847295830621e-02 0.0000000000000000e+00  1.7606755000538567e-07 -3.9851487763066325e-07 0.0000000000000000e+00  1.1730903601633228e-07 8.7069113633191125e-08 0.0000000000000000e+00  -5.5183801828122471e-09 4.2081035572948904e-09 0.0000000000000000e+00  -2.9233563799356211e-07 -2.3011528806105975e-07 0.0000000000000000e+00  1.2781460351928451e-07 -9.8759107644034403e-08 0.0000000000000000e+00  -4.8957944859629430e-09 5.1481764133880812e-09 0.0000000000000000e+00  -2.0682977325810066e-09 3.9905425518922962e-08 0.0000000000000000e+00  -2.0682977325810066e-09 3.9905425518922962e-08 0.0000000000000000e+00  8.0115755814461787e-02 -1.1259466551687233e-02 0.0000000000000000e+00  -6.5732021649308687e-03 -3.7278449246818217e-02 0.0000000000000000e+00  -7.0947887928937761e-02 -5.3423545144062549e-02 0.0000000000000000e+00  4.5137739816754383e-02 -7.5182925009289095e-02 0.0000000000000000e+00  3.2216634537808815e-11 -2.5837912101882238e-11 0.0000000000000000e+00  -3.3329100487004785e-12 -2.8683616171768740e-13 0.0000000000000000e+00  -3.2285700519430774e-12 1.1533305202904395e-11 0.0000000000000000e+00  -9.4720780083336995e-02 5.0363898120033807e-02 0.0000000000000000e+00  8.4232440267897821e-03 -4.7770564284503277e-02 0.0000000000000000e+00  7.2277183831322020e-02 5.2512376650198089e-02 0.0000000000000000e+00  -3.2285700519430774e-12 1.1533305202904395e-11 0.0000000000000000e+00  -1.7269536288996593e-08 2.3267918045117573e-07 0.0000000000000000e+00  1.0728007000727662e-07 8.9418441270193816e-07 0.0000000000000000e+00  -1.0374587462723040e-06 -7.4660545010102313e-07 0.0000000000000000e+00  6.3018938027409072e-04 8.2667852013268671e-03 0.0000000000000000e+00  4.7432953335903149e-03 -3.3761743000265111e-02 0.0000000000000000e+00  -1.1783852608368381e-01 -9.6955388910911267e-02 0.0000000000000000e+00  7.4042688409150126e-02 -1.1209175769890027e-01 0.0000000000000000e+00  3.0671699338459819e-02 6.5194721468379924e-03 0.0000000000000000e+00  4.1634877464956969e-02 9.6090355207514265e-03 0.0000000000000000e+00  5.3619101820151602e-02 1.0993487939422621e-01 0.0000000000000000e+00  7.5844386219169779e-02 1.6261825220606602e-01 0.0000000000000000e+00  1.2325021919102512e-01 -2.6197599147601627e-02 0.0000000000000000e+00  7.8081339842261829e-02 -1.8845218804658285e-02 0.0000000000000000e+00  7.4853333525603291e-02 -5.0489223305980685e-02 0.0000000000000000e+00  7.7259258927164884e-02 6.9564526248146116e-02 0.0000000000000000e+00  5.9086278301785272e-07 -4.5903964286069917e-07 0.0000000000000000e+00  2.6396926902064142e-11 3.6582499414864136e-12 0.0000000000000000e+00  2.6396926902064142e-11 3.6582499414864136e-12 0.0000000000000000e+00  2.6981100691105529e-11 2.0688710946959710e-11 0.0000000000000000e+00  9.2399503706554430e-11 -7.5101318582203632e-11 0.0000000000000000e+00  -7.7504888119289295e-02 4.2019763992537713e-02 0.0000000000000000e+00  -7.4280263763067969e-02 2.4135183118913880e-02 0.0000000000000000e+00  2.9223361792148132e-02 1.8310948518942181e-03 0.0000000000000000e+00  -8.4652087313007232e-03 -3.1749859384483402e-02 0.0000000000000000e+00  -9.8322970166800742e-03 -5.5761515450347361e-02 0.0000000000000000e+00  -2.6607605385432095e-02 6.1449789579699383e-02 0.0000000000000000e+00  9.6533697025795743e-04 3.6024010194260909e-04 0.0000000000000000e+00  -8.4139228459965187e-02 -5.8836012158855720e-03 0.0000000000000000e+00  -5.8311497960845726e-02 6.3520909443537027e-02 0.0000000000000000e+00  -5.2491359623348582e-02 -9.8712751425205650e-02 0.0000000000000000e+00  -5.0606293918238697e-02 -2.4009912479928536e-03 0.0000000000000000e+00  3.4748112177444188e-03 1.3536271117185030e-03 0.0000000000000000e+00  1.2355645951288474e-01 1.0714338131903936e-01 0.0000000000000000e+00  1.2224183593784489e-01 -8.5815583522046573e-02 0.0000000000000000e+00  -8.4772009333879735e-03 -3.9663189107011471e-02 0.0000000000000000e+00  -2.9777784260285973e-03 3.9499801711564302e-02 0.0000000000000000e+00  -2.9269505153919390e-03 2.7323666775891070e-02 0.0000000000000000e+00  -4.1882845355447042e-02 1.0366379164424032e-01 0.0000000000000000e+00  1.0219737834690132e-01 -6.3859970293894591e-02 0.0000000000000000e+00  -1.8747332265123068e-02 -8.3468965210353966e-03 0.0000000000000000e+00  -9.5384187982933785e-02 -1.4837984959642656e-01 0.0000000000000000e+00  -1.3776895253728728e-02 6.0961367269689135e-02 0.0000000000000000e+00  8.9132947086312242e-09 6.3261873071375207e-09 0.0000000000000000e+00  3.1379192518362856e-08 1.1688507978954370e-08 0.0000000000000000e+00  -3.2103958848097682e-08 -9.2743955751027598e-09 0.0000000000000000e+00  -5.8058550521463438e-07 2.0551549855763798e-07 0.0000000000000000e+00  -4.8957944859629430e-09 5.1481764133880812e-09 0.0000000000000000e+00  -4.3241207626497224e-07 1.3020707348195525e-05 0.0000000000000000e+00  3.1195837651451103e-07 2.8952279917036492e-06 0.0000000000000000e+00  9.2271576720126042e-07 -2.8765221509878066e-07 0.0000000000000000e+00  3.1195837651451103e-07 2.8952279917036492e-06 0.0000000000000000e+00  -4.3241207626497224e-07 1.3020707348195525e-05 0.0000000000000000e+00  -5.9174049319585715e-09 -4.0794120488775708e-09 0.0000000000000000e+00  6.6439056108942204e-09 -3.9441853482183729e-09 0.0000000000000000e+00  -9.8616221432678661e-02 1.0789752376716438e-01 0.0000000000000000e+00  -8.4731414110086847e-02 -1.7372540176302353e-01 0.0000000000000000e+00  1.4842525424096344e-11 -8.5890434488758967e-11 0.0000000000000000e+00  6.1551443834961359e-10 4.6801327138011415e-10 0.0000000000000000e+00  -2.7116975482601719e-