<?xml version="1.0"?>
<VTKFile type="UnstructuredGrid"  version="0.1"  >
<UnstructuredGrid>
<Piece  NumberOfPoints="2577" NumberOfCells="4963">
<Points>
<DataArray  type="Float64"  NumberOfComponents="3"  format="ascii">-0.4987820251299121 0.03487823687206276 0  -0.4987820251299122 -0.03487823687206242 0  -0.4890738003669028 -0.1039558454088795 0  -0.4698463103929542 -0.1710100716628343 0  -0.4414737964294634 -0.2347357813929454 0  -0.4045084971874738 -0.2938926261462365 0  -0.3596699001693255 -0.3473291852294987 0  -0.307830737662829 -0.3940053768033611 0  -0.2500000000000002 -0.4330127018922192 0  -0.1873032967079561 -0.4635919272833937 0  -0.1209609477998339 -0.4851478631379982 0  -0.05226423163382668 -0.4972609476841367 0  0.01744974835125064 -0.4996954135095479 0  0.08682408883346499 -0.4924038765061041 0  0.1545084971874736 -0.4755282581475768 0  0.2191855733945387 -0.4493970231495835 0  0.2795964517353731 -0.414518786277521 0  0.3345653031794289 -0.3715724127386973 0  0.3830222215594889 -0.3213938048432698 0  0.4240240480782127 -0.2649596321166029 0  0.4567727288213005 -0.2033683215379001 0  0.4806308479691593 -0.1378186779084999 0  0.4951340343707851 -0.06958655048003294 0  0.5 0 0  0.4951340343707852 0.06958655048003272 0  0.4806308479691594 0.1378186779084996 0  0.4567727288213004 0.2033683215379001 0  0.424024048078213 0.2649596321166025 0  0.383022221559489 0.3213938048432696 0  0.3345653031794291 0.3715724127386971 0  0.2795964517353734 0.4145187862775209 0  0.2191855733945387 0.4493970231495835 0  0.1545084971874737 0.4755282581475768 0  0.08682408883346521 0.492403876506104 0  0.01744974835125054 0.4996954135095479 0  -0.05226423163382667 0.4972609476841367 0  -0.1209609477998339 0.4851478631379982 0  -0.187303296707956 0.4635919272833937 0  -0.2499999999999999 0.4330127018922194 0  -0.3078307376628291 0.394005376803361 0  -0.3596699001693256 0.3473291852294986 0  -0.4045084971874737 0.2938926261462366 0  -0.4414737964294634 0.2347357813929455 0  -0.4698463103929542 0.1710100716628344 0  -0.4890738003669028 0.1039558454088797 0  1 0 0  0.9975640502598242 0.0697564737441253 0  0.9902680687415704 0.1391731009600654 0  0.9781476007338057 0.2079116908177593 0  0.9612616959383189 0.2756373558169992 0  0.9396926207859084 0.3420201433256687 0  0.9135454576426009 0.4067366430758002 0  0.882947592858927 0.4694715627858908 0  0.848048096156426 0.5299192642332049 0  0.8090169943749475 0.5877852522924731 0  0.766044443118978 0.6427876096865393 0  0.7193398003386512 0.6946583704589973 0  0.6691306063588582 0.7431448254773941 0  0.6156614753256583 0.788010753606722 0  0.5591929034707468 0.8290375725550417 0  0.5000000000000001 0.8660254037844386 0  0.4383711467890775 0.898794046299167 0  0.374606593415912 0.9271838545667874 0  0.3090169943749475 0.9510565162951535 0  0.2419218955996679 0.9702957262759965 0  0.1736481776669304 0.984807753012208 0  0.1045284632676535 0.9945218953682733 0  0.03489949670250108 0.9993908270190958 0  -0.03489949670250073 0.9993908270190958 0  -0.1045284632676533 0.9945218953682734 0  -0.1736481776669303 0.984807753012208 0  -0.2419218955996678 0.9702957262759965 0  -0.3090169943749473 0.9510565162951536 0  -0.3746065934159121 0.9271838545667874 0  -0.4383711467890775 0.8987940462991669 0  -0.4999999999999998 0.8660254037844387 0  -0.5591929034707467 0.8290375725550417 0  -0.6156614753256583 0.788010753606722 0  -0.6691306063588582 0.7431448254773942 0  -0.7193398003386512 0.6946583704589971 0  -0.7660444431189779 0.6427876096865395 0  -0.8090169943749473 0.5877852522924732 0  -0.848048096156426 0.5299192642332049 0  -0.8829475928589268 0.4694715627858911 0  -0.9135454576426008 0.4067366430758004 0  -0.9396926207859083 0.3420201433256689 0  -0.9612616959383187 0.2756373558169997 0  -0.9781476007338057 0.2079116908177593 0  -0.9902680687415703 0.1391731009600657 0  -0.9975640502598242 0.06975647374412552 0  -1 1.224646799147353e-16 0  -0.9975640502598243 -0.06975647374412483 0  -0.9902680687415703 -0.1391731009600655 0  -0.9781476007338057 -0.2079116908177591 0  -0.9612616959383189 -0.275637355816999 0  -0.9396926207859084 -0.3420201433256687 0  -0.9135454576426011 -0.4067366430757998 0  -0.8829475928589269 -0.4694715627858909 0  -0.8480480961564261 -0.5299192642332048 0  -0.8090169943749476 -0.587785252292473 0  -0.766044443118978 -0.6427876096865393 0  -0.7193398003386511 -0.6946583704589974 0  -0.6691306063588585 -0.743144825477394 0  -0.6156614753256581 -0.7880107536067221 0  -0.5591929034707472 -0.8290375725550414 0  -0.5000000000000004 -0.8660254037844384 0  -0.4383711467890777 -0.8987940462991668 0  -0.3746065934159123 -0.9271838545667873 0  -0.3090169943749476 -0.9510565162951535 0  -0.2419218955996678 -0.9702957262759965 0  -0.1736481776669303 -0.984807753012208 0  -0.1045284632676534 -0.9945218953682734 0  -0.03489949670250165 -0.9993908270190957 0  0.03489949670250128 -0.9993908270190958 0  0.104528463267653 -0.9945218953682734 0  0.17364817766693 -0.9848077530122081 0  0.2419218955996675 -0.9702957262759966 0  0.3090169943749472 -0.9510565162951536 0  0.374606593415912 -0.9271838545667874 0  0.4383711467890774 -0.898794046299167 0  0.5000000000000001 -0.8660254037844386 0  0.5591929034707462 -0.8290375725550421 0  0.6156614753256585 -0.7880107536067218 0  0.6691306063588578 -0.7431448254773946 0  0.7193398003386509 -0.6946583704589976 0  0.7660444431189778 -0.6427876096865396 0  0.8090169943749473 -0.5877852522924734 0  0.8480480961564254 -0.5299192642332058 0  0.8829475928589269 -0.4694715627858908 0  0.913545457642601 -0.4067366430758002 0  0.9396926207859084 -0.3420201433256686 0  0.9612616959383187 -0.2756373558169998 0  0.9781476007338056 -0.2079116908177599 0  0.9902680687415703 -0.1391731009600659 0  0.9975640502598243 -0.06975647374412476 0  -1.1 1.1 0  -1.1 -1.1 0  1.1 -1.1 0  1.1 1.1 0  1.1 0 0  0 1.1 0  -1.1 0 0  0 -1.1 0  1.1 0.55 0  1.1 -0.55 0  -0.55 1.1 0  0.55 1.1 0  -1.1 -0.55 0  -1.1 0.55 0  0.55 -1.1 0  -0.55 -1.1 0  1.1 0.275 0  1.1 -0.275 0  -0.275 1.1 0  0.275 1.1 0  -1.1 -0.275 0  -1.1 0.275 0  0.275 -1.1 0  -0.275 -1.1 0  1.1 0.1375 0  1.1 -0.1375 0  -0.1375 1.1 0  0.1375 1.1 0  -1.1 -0.1375 0  -1.1 0.1375 0  0.1375 -1.1 0  -0.1375 -1.1 0  5.551115123125783e-17 -1.665334536937735e-16 0  -0.8250000000000001 -1.1 0  -0.8250000000000001 1.1 0  0.8250000000000001 1.1 0  0.8250000000000001 -1.1 0  -1.1 -0.8250000000000001 0  1.1 0.8250000000000001 0  1.1 -0.8250000000000001 0  -1.1 0.8250000000000001 0  0.5913683108017449 -0.4620275612009603 0  0.649914963473963 0.3752285791120578 0  0.4606240494606415 0.5895718976940387 0  0.181000513545807 -0.72595340868972 0  -0.5213113466312544 0.5398337023596473 0  -0.748177477268642 3.677613769070831e-16 0  -0.6834941358692682 -0.3043111955291684 0  -0.4823845629070328 -0.574883535856444 0  0.7463460753897364 -0.07844413349737717 0  0.1810005135458073 0.7259534086897199 0  -0.2311995552845864 0.7115590651016113 0  -0.6834941358692682 0.3043111955291685 0  -0.2566714648155866 -0.7051990537991649 0  -0.1676911387756446 0.1862398773501902 0  0.09388033613439234 0.2323619857605368 0  0.25 0.01748170298587768 0  -0.1919787613936808 -0.1610893078793085 0  0.1253052372601464 -0.2170350373890467 0  0.4100151197949826 -0.6310439038757515 0  0.7462612140915066 0.1586227177749866 0  -0.04055708751545835 -0.7729701257972625 0  -0.8714499137803688 0.8714499137803687 0  0.8475624786996654 0.8776766395249775 0  -0.8475624786996656 -0.8776766395249775 0  0.8475624786996647 -0.8776766395249778 0  0.6549247837405074 -0.2646067885805835 0  -0.02452403903941524 0.7022765934528045 0  -0.6971570973421019 0.9595544245098317 0  0.9457715379788133 0.7171099473715343 0  -1.1 0.6875 0  -0.9457715379788133 -0.7171099473715342 0  0.945771537978813 -0.7171099473715348 0  -0.6875 -1.1 0  0.6875 1.1 0  0.6875 -1.1 0  -0.3021034145256841 0.04245786604388235 0  -0.05297525897811498 -0.3004376231321225 0  -0.6493495559083107 -0.4889583914999844 0  -0.4184043150681578 0.6969024203637967 0  1.1 -0.9625000000000001 0  1.1 0.9625000000000001 0  -0.9625000000000001 -1.1 0  0.2887013349030826 -0.1535052227012283 0  -0.056778523551556 0.3220070083626767 0  0.2645279155006937 0.1921907804558624 0  -0.9625000000000001 1.1 0  0.6922516407240482 -0.9346405102034137 0  0.6809472320731365 0.9372434590203537 0  -0.6809472320731367 -0.9372434590203537 0  0.06398867824008851 0.8378070690880577 0  -0.1172078581063797 0.8339772447956406 0  -0.5066579812390133 -0.4168691543844079 0  -0.3616253213577449 0.5474571478967749 0  -0.8028623003113451 -0.1706536500486641 0  -0.6435813133346415 -0.1485334625034662 0  0.3598144769124489 0.7377290042694387 0  0.2791822551364582 0.5985953263881472 0  -0.6535024333571912 0.1389062302773976 0  -0.8110749424437763 0.1957563045411092 0  -0.6949649763371784 0.4687597954466224 0  0.6229628706227364 0.560918288156104 0  -0.9297411857248856 0.7099174590703911 0  0.9625000000000001 1.1 0  0.9625000000000001 -1.1 0  -1.1 -0.9625000000000001 0  -1.1 0.9625000000000001 0  0.7388223103480156 -0.4005571441608962 0  0.8083621931560332 -0.2626527982464245 0  -0.155403738656764 -0.009737379389236772 0  -0.03944258252365207 -0.1479345038122513 0  -0.1124826985140496 -0.6379210831042694 0  0.3343324134502086 -0.7721815783645656 0  0.6086499783436645 0.2271435919934762 0  0.6451580408601226 0.04511384499706936 0  0.5687769439189224 -0.6195906411664603 0  -0.4001602488812527 -0.7525919704505459 0  0.8457217097464697 0.0401248801850398 0  0.7889254854389035 0.307330107167108 0  0.4993777703025682 0.4330411172771549 0  -0.5409883622077387 0.3797819883575305 0  -0.1783153826881871 -0.8337981003274648 0  0.04893952783735875 -0.6491733978417491 0  0.09057598678368259 -0.8453775254020186 0  0.2396424741704135 -0.593135937339345 0  -0.3077981704318665 0.1923336432766373 0  -0.33157036934951 -0.1476246396327481 0  -0.1945783708747696 -0.3026864137415663 0  0.07931900866494118 -0.3509819116997642 0  -1.1 -0.6875 0  -1.1 -0.4125 0  1.1 0.4125 0  1.1 -0.4125 
[...]
<PointData  Vectors="f_153"> 
<DataArray  type="Float64"  Name="f_153"  NumberOfComponents="3" format="ascii">2.7971466348592738e-01 2.7684652950125468e-02 0.0000000000000000e+00  2.9252188574651372e-01 -2.0719272198913537e-03 0.0000000000000000e+00  2.0044640545333303e-01 1.2827933257998261e-02 0.0000000000000000e+00  1.3649339130072383e-01 1.3685015226975563e-02 0.0000000000000000e+00  -2.7751617113457208e-02 -1.4626455990641883e-02 0.0000000000000000e+00  2.0760240921146694e-01 -1.5803873099752691e-01 0.0000000000000000e+00  2.2554097501004991e-01 -2.3851141863885858e-01 0.0000000000000000e+00  4.9222027210796027e-01 -3.3433201657277833e-01 0.0000000000000000e+00  6.1152818415946164e-01 -2.2941899471450275e-01 0.0000000000000000e+00  6.1979166973905109e-01 -5.0428591391896899e-02 0.0000000000000000e+00  5.6007168041487343e-01 1.7687915211097940e-02 0.0000000000000000e+00  5.0222548662038935e-01 5.7722502174354880e-02 0.0000000000000000e+00  4.5074267376377003e-01 6.8966563293511016e-02 0.0000000000000000e+00  3.9071896831747205e-01 1.0206004307892758e-01 0.0000000000000000e+00  3.4435223278625926e-01 1.2261634219634246e-01 0.0000000000000000e+00  3.1540054507685805e-01 1.2469006527793330e-01 0.0000000000000000e+00  2.7023951318266520e-01 1.4189883549879859e-01 0.0000000000000000e+00  2.3279111889091994e-01 1.4354964850868512e-01 0.0000000000000000e+00  2.0474921399186816e-01 1.4908129499222164e-01 0.0000000000000000e+00  3.2144268586677016e-01 4.9261451422649857e-02 0.0000000000000000e+00  2.7757656412725135e-01 6.0448958990682811e-02 0.0000000000000000e+00  1.7874668445598746e-01 1.0654280270898597e-01 0.0000000000000000e+00  1.5316821378527773e-01 9.9062896824545624e-02 0.0000000000000000e+00  2.7870849155588179e-01 1.4099268915087114e-02 0.0000000000000000e+00  2.6302358736439174e-01 4.1030018722579926e-03 0.0000000000000000e+00  3.0514182154169656e-01 -3.9620902774678682e-02 0.0000000000000000e+00  2.3469106040328175e-01 -3.2676887978656803e-02 0.0000000000000000e+00  3.0692642876910346e-02 -8.9489208722299513e-02 0.0000000000000000e+00  2.6628734478112120e-01 -1.8710807438750823e-01 0.0000000000000000e+00  3.6468546858680734e-01 -3.3256138885370484e-01 0.0000000000000000e+00  6.1090497327253879e-01 -3.6724377145449638e-01 0.0000000000000000e+00  6.5478702373079511e-01 -1.1336226035840564e-01 0.0000000000000000e+00  5.9667401735627534e-01 -3.3284683413758613e-02 0.0000000000000000e+00  5.4748186121678610e-01 6.2590480479986811e-03 0.0000000000000000e+00  5.2890510474598840e-01 -1.7730681961776558e-03 0.0000000000000000e+00  3.8499838400096692e-01 1.2805949790101490e-01 0.0000000000000000e+00  3.5875955986669184e-01 1.1926838426872322e-01 0.0000000000000000e+00  3.0828318371424090e-01 1.3916260140543005e-01 0.0000000000000000e+00  3.2792064756889666e-01 1.0227698069854595e-01 0.0000000000000000e+00  3.5264424842875358e-01 6.1214770251724886e-02 0.0000000000000000e+00  4.1270296387993705e-01 9.1752200484536538e-03 0.0000000000000000e+00  3.0914638218789781e-01 6.7036431910161273e-02 0.0000000000000000e+00  2.8821134357960904e-01 7.6744314839714792e-02 0.0000000000000000e+00  3.7798491067133760e-01 3.7813660040550354e-03 0.0000000000000000e+00  2.5830455355068643e-01 4.6642061448619120e-02 0.0000000000000000e+00  -2.0288247420929269e-02 4.4619318966536828e-02 0.0000000000000000e+00  -2.6184566044582313e-02 2.9273675294892339e-02 0.0000000000000000e+00  -2.7025852898783870e-02 1.6180813709167522e-02 0.0000000000000000e+00  -3.1100656567718085e-02 -2.6925487660466180e-03 0.0000000000000000e+00  -3.7554374419660495e-02 -2.6436592582820641e-02 0.0000000000000000e+00  -4.0982661068431257e-02 -4.6841331867770120e-02 0.0000000000000000e+00  -4.3201939808200938e-02 -6.8591047128173821e-02 0.0000000000000000e+00  -4.1432504275817038e-02 -8.2004547876774789e-02 0.0000000000000000e+00  -3.3799363740663065e-02 -1.0585934952237053e-01 0.0000000000000000e+00  -2.1715052241497876e-02 -1.2796620405733125e-01 0.0000000000000000e+00  2.3476479944369738e-03 -1.4800781442383310e-01 0.0000000000000000e+00  2.5275712618472352e-02 -1.5285513814255164e-01 0.0000000000000000e+00  6.8177223847083537e-02 -1.6716727933544742e-01 0.0000000000000000e+00  1.1379173077249564e-01 -1.7106852257907804e-01 0.0000000000000000e+00  1.3600438620296199e-01 -1.5522180733676677e-01 0.0000000000000000e+00  1.8933988980126648e-01 -9.8273063945993014e-02 0.0000000000000000e+00  2.1271166888249016e-01 -9.5359543770491037e-02 0.0000000000000000e+00  2.3640377412027855e-01 -4.7058681645751915e-02 0.0000000000000000e+00  2.5716550362063062e-01 -1.6894063052385888e-02 0.0000000000000000e+00  2.6256513287708882e-01 -2.7039407994027161e-02 0.0000000000000000e+00  2.8250808914776759e-01 6.2397061283760887e-02 0.0000000000000000e+00  9.1723855465933146e-02 -6.8662774923425665e-02 0.0000000000000000e+00  2.9661394259783702e-01 4.5812913323751231e-02 0.0000000000000000e+00  3.3995303524785386e-01 -4.9202900681231475e-02 0.0000000000000000e+00  2.1028997284413284e-01 -5.1841693277917397e-03 0.0000000000000000e+00  -6.0583619942768840e-01 6.3703034849127399e-02 0.0000000000000000e+00  9.2168096118545384e-01 -2.0490190791714182e+00 0.0000000000000000e+00  1.9630620476976432e-01 6.7471616509704856e-03 0.0000000000000000e+00  1.8964045383159231e-01 4.7272986561094694e-02 0.0000000000000000e+00  1.8994069817361087e-01 2.6174041377670355e-02 0.0000000000000000e+00  1.3324696551212478e-01 5.6703789676602868e-02 0.0000000000000000e+00  1.1515720112788487e-01 6.4740848384147606e-02 0.0000000000000000e+00  9.3968377326798608e-02 6.3087716337924163e-02 0.0000000000000000e+00  7.2355192434551935e-02 6.4199894950929232e-02 0.0000000000000000e+00  5.9148967641120022e-02 6.9206045150401282e-02 0.0000000000000000e+00  4.1624154903801058e-02 7.2975057825966749e-02 0.0000000000000000e+00  3.2193457521768588e-02 7.4154605365588572e-02 0.0000000000000000e+00  2.2109792670578436e-02 7.7274477819094967e-02 0.0000000000000000e+00  1.4855370846981745e-02 8.1667909176851808e-02 0.0000000000000000e+00  5.5564058328562236e-03 8.0684818958933771e-02 0.0000000000000000e+00  -1.0721597480781340e-03 7.9806984642469672e-02 0.0000000000000000e+00  -5.2021686419939910e-03 7.8889823639874776e-02 0.0000000000000000e+00  -1.0273669892136867e-02 7.0434625274892082e-02 0.0000000000000000e+00  -1.2199663883106875e-02 6.6556146422114881e-02 0.0000000000000000e+00  -1.5567759117570197e-02 5.4198410428751988e-02 0.0000000000000000e+00  -2.1678203542898331e-02 4.2660625030245355e-02 0.0000000000000000e+00  -2.6423450800986931e-02 2.7001376200195906e-02 0.0000000000000000e+00  -2.6367614084992087e-02 1.3736774953778926e-02 0.0000000000000000e+00  -3.4110454943028813e-02 -5.7312196994064243e-03 0.0000000000000000e+00  -3.6532796162595110e-02 -2.6678628283448962e-02 0.0000000000000000e+00  -4.1629983637691541e-02 -4.4815352297463307e-02 0.0000000000000000e+00  -3.9915413934231599e-02 -6.6951574020088014e-02 0.0000000000000000e+00  -4.4176833988764083e-02 -8.7704773665321631e-02 0.0000000000000000e+00  -3.7072614200982790e-02 -1.0394653020332587e-01 0.0000000000000000e+00  -2.4271658087370238e-02 -1.2719250644939778e-01 0.0000000000000000e+00  -2.8622293894268536e-03 -1.4702895941576893e-01 0.0000000000000000e+00  2.6896756857395714e-02 -1.6035647370951023e-01 0.0000000000000000e+00  8.0358962268882089e-02 -1.5725997153992971e-01 0.0000000000000000e+00  1.0957243566098762e-01 -1.6430681153819532e-01 0.0000000000000000e+00  1.5356546018715714e-01 -1.5334287806377203e-01 0.0000000000000000e+00  2.2420358260483930e-01 -7.7173127498470509e-02 0.0000000000000000e+00  1.7713264506115575e-01 -1.3484324727588742e-01 0.0000000000000000e+00  2.0069474764076575e-01 -9.0461129096684925e-02 0.0000000000000000e+00  2.7415919560760821e-01 4.0798898952915628e-03 0.0000000000000000e+00  2.5512068744076516e-01 4.0782588758691320e-02 0.0000000000000000e+00  2.3162141930113231e-01 3.1440242590323627e-04 0.0000000000000000e+00  2.6029529895473152e-01 -2.4505622842752113e-03 0.0000000000000000e+00  2.7091863334430893e-01 -4.3135818749949493e-03 0.0000000000000000e+00  2.5939318460781163e-01 -2.9840631464544123e-03 0.0000000000000000e+00  3.5596823130820721e-01 2.7081098377310299e-02 0.0000000000000000e+00  1.7826124054388706e-01 1.2088624896712097e-01 0.0000000000000000e+00  2.3840319275378302e-01 3.3683720593201599e-02 0.0000000000000000e+00  1.9667872561787089e-01 7.8497474368274436e-02 0.0000000000000000e+00  1.6376383257257118e-01 6.4121439670368735e-02 0.0000000000000000e+00  1.5759778800298396e-01 5.2894720611511785e-02 0.0000000000000000e+00  1.3160405458317184e-01 5.4965025447314533e-02 0.0000000000000000e+00  1.0744455513127944e-01 6.0520295823754268e-02 0.0000000000000000e+00  9.2262075873414520e-02 6.2879972215014235e-02 0.0000000000000000e+00  7.3935061844238661e-02 6.3454718853504719e-02 0.0000000000000000e+00  5.8070449546938498e-02 6.8004318924509505e-02 0.0000000000000000e+00  4.3901157113787254e-02 7.4338235975056441e-02 0.0000000000000000e+00  3.3555969672369769e-02 7.6866005015741534e-02 0.0000000000000000e+00  2.2138066987506304e-02 7.7386543890467133e-02 0.0000000000000000e+00  1.1753020702070001e-02 8.2292755660853700e-02 0.0000000000000000e+00  6.2173810816832089e-03 8.0941260338379215e-02 0.0000000000000000e+00  -3.8414559856035936e-05 7.8294111207527328e-02 0.0000000000000000e+00  -5.7414475916113157e-03 7.6912791215105594e-02 0.0000000000000000e+00  -8.7908622563867538e-03 7.1483467230735925e-02 0.0000000000000000e+00  -1.3379649360616756e-02 6.4923163500460901e-02 0.0000000000000000e+00  -1.8560876895614125e-02 5.5156247814185273e-02 0.0000000000000000e+00  1.4208745283962343e-02 7.9828011397739609e-03 0.0000000000000000e+00  1.4208745283962343e-02 7.9828011397739609e-03 0.0000000000000000e+00  1.0736484531901656e-02 -4.7456974815361094e-04 0.0000000000000000e+00  1.0736484531901656e-02 -4.7456974815361094e-04 0.0000000000000000e+00  -4.4443695859780483e-03 4.1246132966043569e-02 0.0000000000000000e+00  2.6823463439348105e-01 -7.2360844988124222e-03 0.0000000000000000e+00  -4.7168628849225767e-03 4.1060871552769565e-02 0.0000000000000000e+00  2.6823463439348105e-01 -7.2360844988124222e-03 0.0000000000000000e+00  -1.4676189835721308e-03 -7.7010945655356586e-02 0.0000000000000000e+00  1.6028762198327842e-03 6.4501151400283160e-02 0.0000000000000000e+00  1.4384226300412573e-01 -3.3407263965287331e-03 0.0000000000000000e+00  1.4955038864667919e-01 1.5245838863245448e-02 0.0000000000000000e+00  -1.7653453860059095e-03 -7.7987058038890889e-02 0.0000000000000000e+00  2.3613024634048033e-03 6.3603547052246148e-02 0.0000000000000000e+00  1.4955038864667919e-01 1.5245838863245448e-02 0.0000000000000000e+00  1.4384226300412573e-01 -3.3407263965287331e-03 0.0000000000000000e+00  -5.5952902606708210e-03 -2.3113844704017301e-02 0.0000000000000000e+00  -6.6582640504058083e-04 7.1932509672247250e-02 0.0000000000000000e+00  2.6485779826959260e-01 -2.7662121970807156e-03 0.0000000000000000e+00  1.9469210269147491e-01 -6.3198457323702852e-03 0.0000000000000000e+00  -4.9841606974659848e-03 -2.3547402975604311e-02 0.0000000000000000e+00  -6.0116323111630225e-04 7.2288636174766663e-02 0.0000000000000000e+00  1.9469210269147491e-01 -6.3198457323702852e-03 0.0000000000000000e+00  2.6485779826959260e-01 -2.7662121970807156e-03 0.0000000000000000e+00  -5.3883126449985365e-03 1.3649119282233562e-02 0.0000000000000000e+00  -2.1142746733589309e-03 6.2364348603367793e-02 0.0000000000000000e+00  3.8114656831221377e-01 3.5750082622373995e-02 0.0000000000000000e+00  2.6673654242336176e-01 -7.6527617611215530e-03 0.0000000000000000e+00  -5.5379728511065849e-03 1.2937396007632019e-02 0.0000000000000000e+00  -1.7519743818001313e-03 6.3428002102231151e-02 0.0000000000000000e+00  2.6673654242336176e-01 -7.6527617611215530e-03 0.0000000000000000e+00  3.8114656831221377e-01 3.5750082622373995e-02 0.0000000000000000e+00  6.4818512483641721e-01 -1.7657631448643279e-01 0.0000000000000000e+00  7.7070737379196536e-02 5.6331481381907082e-03 0.0000000000000000e+00  7.7070737379196536e-02 5.6331481381907082e-03 0.0000000000000000e+00  6.3429076527403941e-02 -3.5324750578414831e-03 0.0000000000000000e+00  6.3429076527403941e-02 -3.5324750578414831e-03 0.0000000000000000e+00  -9.8789987083314928e-04 -7.4196148564563733e-02 0.0000000000000000e+00  2.0851944525003508e-03 -7.4067974815360774e-02 0.0000000000000000e+00  4.4975027179250376e-03 2.6183110786737324e-02 0.0000000000000000e+00  3.5449523836380129e-03 2.4917533843039633e-02 0.0000000000000000e+00  3.7640358971450842e-02 1.6433447286242978e-01 0.0000000000000000e+00  -1.2880159511931472e-01 -1.0161017040734227e-01 0.0000000000000000e+00  1.1509342189603716e-01 -2.1811932327359873e-01 0.0000000000000000e+00  2.0873558286127039e-01 1.7360625998147497e-01 0.0000000000000000e+00  6.5954749879837030e-02 1.6691719345467029e-01 0.0000000000000000e+00  -8.9352484157727050e-02 9.8852669067174201e-02 0.0000000000000000e+00  -1.4537587403794022e-01 -4.4938095900839269e-02 0.0000000000000000e+00  8.8556777711200602e-02 -2.1981717893594926e-01 0.0000000000000000e+00  -6.8370673318056407e-02 1.1507099385070134e-01 0.0000000000000000e+00  3.4815222221152126e-01 3.6259269343365978e-02 0.0000000000000000e+00  1.8439311686753260e-01 1.7240563727691788e-01 0.0000000000000000e+00  -1.4278462396855618e-02 1.5331935145757641e-01 0.0000000000000000e+00  3.3041733248071303e-01 -3.6236419817676530e-02 0.0000000000000000e+00  6.4818291776463688e-01 -1.7722522265447729e-01 0.0000000000000000e+00  6.4937990070492113e-01 -1.7386370146584806e-01 0.0000000000000000e+00  6.4826442808262064e-01 -1.7710059482919077e-01 0.0000000000000000e+00  6.4615675997520283e-01 -1.7430374125656004e-01 0.0000000000000000e+00  6.4884092636837676e-01 -1.7705884592194795e-01 0.0000000000000000e+00  1.1561492951897571e-01 1.7688964602581264e-01 0.0000000000000000e+00  -1.1759382453493471e-01 3.6936276004618192e-02 0.0000000000000000e+00  3.0699022669584808e-01 1.1384239631938785e-01 0.0000000000000000e+00  4.5477209520042292e-02 2.2018316591968418e-02 0.0000000000000000e+00  3.8613465394617540e-02 -8.4534529784805551e-02 0.0000000000000000e+00  4.1622574447061300e-02 -7.3436297052560079e-02 0.0000000000000000e+00  4.8689868056719612e-02 2.2273975699049785e-02 0.0000000000000000e+00  -2.8563913844005133e-02 1.7173165287909739e-01 0.0000000000000000e+00  2.8703157415034092e-01 1.7327785459120509e-01 0.0000000000000000e+00  9.7389870641504186e-02 1.0382492812082895e-03 0.0000000000000000e+00  8.3061908065902284e-03 -9.4021002930169198e-02 0.0000000000000000e+00  3.7601749670924381e-03 4.7700692651724066e-02 0.0000000000000000e+00  6.3400322253167147e-03 -9.3550734609316288e-02 0.0000000000000000e+00  2.4400648713624122e-02 4.6058549732848064e-02 0.0000000000000000e+00  8.3594380426900303e-02 9.2493734170769684e-03 0.0000000000000000e+00  9.0521973755615492e-02 4.4376839350919106e-03 0.0000000000000000e+00  9.0521973755615492e-02 4.4376839350919106e-03 0.0000000000000000e+00  6.4372439273301429e-01 -1.7551031524244293e-01 0.0000000000000000e+00  6.5087830563919558e-01 -1.7374333005272435e-01 0.0000000000000000e+00  -5.2931016675398367e-02 -1.6149469740673500e-01 0.0000000000000000e+00  1.2296503651089917e-01 1.3941087324162990e-01 0.0000000000000000e+00  4.6054146586833634e-03 -3.4386905491225017e-03 0.0000000000000000e+00  5.4538774219675866e-02 -6.0133214574206754e-03 0.0000000000000000e+00  3.3419303196141122e-02 -1.0793949897403778e-03 0.0000000000000000e+00  6.4688470390648278e-01 -1.7694643843873892e-01 0.0000000000000000e+00  6.4816096725498462e-01 -1.7450371148141980e-01 0.0000000000000000e+00  6.4185506455107499e-01 -1.7367594323412577e-01 0.0000000000000000e+00  3.3419303196141122e-02 -1.0793949897403778e-03 0.0000000000000000e+00  9.8652517613028221e-02 2.3762666482254835e-02 0.0000000000000000e+00  1.4556317881526812e-01 -1.4153285256916939e-01 0.0000000000000000e+00  1.0647884073126510e-01 -1.1786276103185767e-01 0.0000000000000000e+00  2.9010870549496015e-01 8.5096019125805680e-02 0.0000000000000000e+00  2.4170275882838999e-01 1.1265312815293362e-01 0.0000000000000000e+00  -1.1888183186004485e-01 -2.1814845830623295e-01 0.0000000000000000e+00  1.0455112303350712e-01 2.2468943844947598e-01 0.0000000000000000e+00  -9.4734115631878016e-02 2.1945806612264689e-02 0.0000000000000000e+00  -1.6421474178168230e-01 7.9297663139400051e-02 0.0000000000000000e+00  2.6124858869801504e-01 -9.4953976623771294e-02 0.0000000000000000e+00  3.7167021690993568e-01 -1.1807930838109044e-01 0.0000000000000000e+00  -6.4060337409716422e-02 1.7104678783732366e-01 0.0000000000000000e+00  -3.0445654995376707e-02 1.0469436590228547e-01 0.0000000000000000e+00  2.7358092528706680e-02 1.2620794682503073e-01 0.0000000000000000e+00  -5.3501750332203835e-03 -1.8131105547613188e-01 0.0000000000000000e+00  2.6050564037472617e-02 4.7497612345762732e-02 0.0000000000000000e+00  3.4627778039942894e-02 2.2207936978081350e-03 0.0000000000000000e+00  3.4627778039942894e-02 2.2207936978081350e-03 0.0000000000000000e+00  -9.6413471081228844e-02 6.0793552461002424e-03 0.0000000000000000e+00  1.2653388608767761e-03 1.7335704399054055e-03 0.0000000000000000e+00  1.0262126741882425e-02 1.2269205505259717e-01 0.0000000000000000e+00  -1.5992363059604900e-02 1.0858502606849973e-01 0.0000000000000000e+00  6.4768641426098439e-01 -1.7654987013178322e-01 0.0000000000000000e+00  6.4881768308079124e-01 -1.7568163887704230e-01 0.0000000000000000e+00  3.7536924921487069e-01 1.3166586419798224e-01 0.0000000000000000e+00  1.6536694108294356e-01 1.2716375354756354e-01 0.0000000000000000e+00  -1.8166811994157148e-01 2.6056852102659366e-02 0.0000000000000000e+00  -1.3018809226851688e-01 1.3010348361295082e-01 0.0000000000000000e+00  7.8454632839736194e-02 1.2824213777268276e-01 0.0000000000000000e+00  2.2815526130598873e-01 -1.1051520981461180e-01 0.0000000000000000e+00  -6.7453149351573968e-02 5.7128746996745992e-02 0.0000000000000000e+00  -9.6117187883145203e-02 -4.2684082249598111e-02 0.0000000000000000e+00  -9.8568160634013482e-02 -2.3849783996665919e-01 0.0000000000000000e+00  2.0948321367214591e-02 2.0335870854846400e-01 0.0000000000000000e+00  2.9561316841729945e-01 3.6350565937075544e-02 0.0000000000000000e+00  2.7271331820146005e-01 2.0487593845642205e-01 0.0000000000000000e+00  2.5061229417953723e-01 1.1289633666083176e-01 0.0000000000000000e+00  1.5807871993658454e-01 2.3399918820697638e-01 0.0000000000000000e+00  6.4617030216957116e-01 -1.7674972666312713e-01 0.0000000000000000e+00  6.4543608321040424e-01 -1.7506196708952604e-01 0.0000000000000000e+00  6.4563328919609175e-01 -1.6434201303277998e-01 0.0000000000000000e+00  6.4969222098813917e-01 -1.7647202911127102e-01 0.0000000000000000e+00  3.8352061969900483e-04 -8.5614524890674934e-02 0.0000000000000000e+00  -4.2010650867736433e-03 -5.8151166363027071e-02 0.0000000000000000e+00  -4.3803493223647776e-03 -5.7966667715626682e-02 0.0000000000000000e+00  6.1642803213675986e-04 7.2389148785138913e-02 0.0000000000000000e+00  8.3594380426900303e-02 9.2493734170769684e-03 0.0000000000000000e+00  1.9378969882042457e-01 6.2776562350932048e-03 0.0000000000000000e+00  1.9520565130797590e-01 1.4368176567127844e-03 0.0000000000000000e+00  7.3685639739981036e-04 7.2342781944348331e-02 0.0000000000000000e+00  1.9520565130797590e-01 1.4368176567127844e-03 0.0000000000000000e+00  1.9378969882042457e-01 6.2776562350932048e-03 0.0000000000000000e+00  1.5421919777988937e-04 -8.4043122342083193e-02 0.0000000000000000e+00  3.6949474403403021e-03 4.7869539501365799e-02 0.0000000000000000e+00  6.4398905904949108e-02 2.2253074897187464e-01 0.0000000000000000e+00  3.6365769183699226e-01 -1.7400314758088586e-01 0.0000000000000000e+00  3.6709669055154798e-02 1.7131378842729897e-03 0.0000000000000000e+00  -1.0307149278080347e-03 -8.9065048778858874e-02 0.0000000000000000e+00  -4.0078687625638904e-02 -9.5685628274912074e-02 0.0000000000000000e+00  6.4819161728712948e-01 -1.7