<?xml version="1.0"?>
<VTKFile type="UnstructuredGrid"  version="0.1"  >
<UnstructuredGrid>
<Piece  NumberOfPoints="6614" NumberOfCells="12519">
<Points>
<DataArray  type="Float64"  NumberOfComponents="3"  format="ascii">0 0 0  6.5 -0.125 0  12 -0.125 0  12 0.125 0  6.5 0.125 0  0 1 0  12 0.875 0  6.5 0.875 0  -2.5 1 0  -2.5 0 0  3.25 0.0625 0  3.25 0.9375 0  3.25 -0.0625 0  9.25 0.125 0  9.25 0.875 0  9.25 -0.125 0  1.625 0.03125 0  1.625 0.96875 0  1.625 -0.03125 0  4.875 0.90625 0  4.875 0.09375 0  4.875 -0.09375 0  7.875 0.125 0  7.875 0.875 0  7.875 -0.125 0  10.625 0.875 0  10.625 0.125 0  10.625 -0.125 0  -1.25 1 0  -1.25 0 0  0.8125 0.015625 0  0.8125 0.984375 0  0.8125 -0.015625 0  2.4375 0.953125 0  2.4375 0.046875 0  2.4375 -0.046875 0  4.0625 0.078125 0  4.0625 0.921875 0  4.0625 -0.078125 0  5.6875 0.109375 0  5.6875 0.890625 0  5.6875 -0.109375 0  -1.875 0 0  -1.875 1 0  -0.625 0 0  -0.625 1 0  8.5625 0.875 0  8.5625 0.125 0  8.5625 -0.125 0  7.1875 0.125 0  7.1875 0.875 0  7.1875 -0.125 0  11.3125 0.125 0  11.3125 0.875 0  11.3125 -0.125 0  9.9375 0.125 0  9.9375 0.875 0  9.9375 -0.125 0  0 0.5 0  1.209585336538462 0.5 0  2.022385817307693 0.5 0  2.835186298076923 0.5 0  3.647986778846154 0.5 0  -0.9375 0.5 0  -1.5625 0.5 0  -2.5 0.5 0  4.460787259615385 0.5 0  5.28125 0.1015625 0  5.28125 0.8984375 0  5.28125 -0.1015625 0  6.09375 0.8828125 0  6.09375 0.1171875 0  6.09375 -0.1171875 0  8.90625 0.5 0  7.53125 0.5 0  8.21875 0.5 0  6.84375 0.5 0  10.28125 0.5 0  10.96875 0.5 0  12 0.5 0  9.59375 0.5 0  0.5506310096153846 0.5 0  -0.46875 0.4453125 0  -2.03125 0.4453125 0  5.070387620192307 0.5 0  5.883188100961538 0.5 0  4.46875 0.0859375 0  4.46875 -0.0859375 0  3.65625 -0.0703125 0  3.65625 0.0703125 0  2.84375 0.0546875 0  2.84375 -0.0546875 0  2.03125 -0.0390625 0  2.03125 0.0390625 0  1.21875 0.0234375 0  1.21875 -0.0234375 0  4.054387019230769 0.4847310450995098 0  3.241586538461538 0.4699247074852732 0  1.615985576923077 0.4417102219320143 0  5.476787860576923 0.53993893765092 0  2.428786057692307 0.4556005042418 0  0.40625 0.0078125 0  0.40625 -0.0078125 0  0.40625 0.9921875 0  4.46875 0.9140625 0  3.65625 0.9296875 0  2.84375 0.9453125 0  2.03125 0.9609375 0  1.21875 0.9765625 0  11.65625 0.875 0  11.484375 0.5 0  6.467329545454546 0.5 0  9.59375 -0.125 0  9.59375 0.125 0  10.28125 -0.125 0  10.28125 0.125 0  10.96875 -0.125 0  10.96875 0.125 0  6.84375 -0.125 0  6.84375 0.125 0  7.53125 -0.125 0  7.53125 0.125 0  8.21875 -0.125 0  8.21875 0.125 0  8.90625 -0.125 0  8.90625 0.125 0  11.65625 -0.125 0  11.65625 0.125 0  -0.3125 1 0  -2.1875 1 0  9.25 0.4700520833333333 0  9.59375 0.875 0  9.9375 0.5299479166666666 0  10.625 0.4700520833333333 0  10.96875 0.875 0  10.28125 0.875 0  6.84375 0.875 0  7.1875 0.5299479166666666 0  7.875 0.4700520833333333 0  8.21875 0.875 0  8.5625 0.5299479166666666 0  7.53125 0.875 0  8.90625 0.875 0  0.8801081730769231 0.63484883039911 0  -2.1875 0 0  -0.3125 0 0  0 0.25 0  0.2753155048076923 0.6865079365079365 0  1.011042668269231 0.2578125 0  1.446827777824054 0.7082004557951647 0  -1.25 0.65234375 0  -1.284375 0.326171875 0  -1.5625 0 0  -1.5625 1 0  -0.9375 0 0  -0.9375 1 0  1.823692908653846 0.7343749999999999 0  2.250687166802934 0.7075583934794667 0  4.765587439903847 0.3964836665810265 0  0.2753155048076923 0.375 0  3.054829110674799 0.707148526758953 0  2.636343149038462 0.7265625000000001 0  3.859250973615127 0.7069998487229827 0  3.448993389423077 0.7187500000000001 0  -0.78125 0.75 0  -0.78125 0.25 0  0 0.75 0  -2.5 0.25 0  -2.240776699029126 0.6856416868932038 0  -1.775 0.28515625 0  -1.71875 0.75 0  6.175258823208043 0.5886645441611957 0  4.261643629807693 0.7109374999999998 0  4.667893629807693 0.7031250000000002 0  1.824167367109634 0.2409531602990362 0  2.636686615214766 0.2555772588321514 0  1.38325552388875 0.2649704395311445 0  -0.46875 0.7446632922535211 0  3.449201796915416 0.2704128103983777 0  2.203202991433102 0.2729232708226779 0  4.261712450328808 0.2854838329019752 0  3.023283383806745 0.2808786583609286 0  3.843540099517909 0.288837436732593 0  0.6331235396611878 0.7683768130429148 0  0.6054339511832376 0.2166532884716425 0  6.256771799991964 0.3317884692185022 0  -0.2486470253814554 0.5949878961267605 0  -1.984670937186905 0.7576275392581842 0  11.2265625 0.3912760416666667 0  11.7421875 0.3912760416666667 0  -1.036405127827206 0.2643561701079966 0  10.78053977272727 0.6725260416666666 0  8.734375 0.3125 0  8.390625 0.3125 0  7.359375 0.3125 0  7.015625 0.3125 0  10.109375 0.3125 0  9.765625 0.3125 0  6.671875 0.3125 0  6.655539772727273 0.6725260416666669 0  11.78555345556989 0.6484760842723984 0  9.405539772727273 0.6725260416666666 0  9.094460227272727 0.6725260416666666 0  10.46946022727273 0.6725260416666666 0  11.140625 0.6875 0  8.030539772727273 0.6725260416666666 0  7.719460227272728 0.6725260416666666 0  -2.277018229166667 0.375 0  -0.2686215753424658 0.2654644691780822 0  0.7924173055676504 0.3931430043056919 0  -2.5 0.75 0  -1.525008560462654 0.2496950333675564 0  7.703125 0.2975260416666667 0  8.046875 0.2975260416666666 0  10.453125 0.2975260416666667 0  10.81190567787247 0.3125 0  9.078125 0.2975260416666667 0  9.421875 0.2975260416666666 0  10.12440567787247 0.6875 0  9.765625 0.7024739583333333 0  7.374405677872475 0.6875 0  7.015625 0.7024739583333333 0  8.749405677872474 0.6875 0  8.390625 0.7024739583333333 0  1.115551444307063 0.7401777158454262 0  5.28922999544003 0.360801083570939 0  5.078125 0.09765625 0  5.078125 -0.09765625 0  5.664767392260801 0.3650917682044265 0  -1.479229041916168 0.7258724738023952 0  -1.029665898617512 0.7685681883640553 0  0.203125 0.00390625 0  0.203125 -0.00390625 0  6.296875 0.12109375 0  6.296875 -0.12109375 0  -2.00322265625 0.205078125 0  -0.6971783980582524 0.5236271237864077 0  -0.546875 0.22265625 0  -1.801855111236272 0.5242311804773303 0  5.484375 0.10546875 0  5.890625 -0.11328125 0  5.890625 0.11328125 0  4.903633313301282 0.6699100680171115 0  5.260369462255295 0.6544725809557483 0  4.972693810096154 0.296875 0  4.671875 0.08984375 0  4.671875 -0.08984375 0  5.078125 0.90234375 0  4.265625 -0.08203125 0  4.265625 0.08203125 0  6.03259461594712 0.3328645427790781 0  5.890625 0.88671875 0  5.692656615207549 0.6488796598294736 0  6.296875 0.87890625 0  3.859375 0.07421875 0  3.859375 -0.07421875 0  4.561082497482947 0.2948209397629855 0  2.036725213111611 0.7135654082038703 0  3.453125 0.06640625 0  3.453125 -0.06640625 0  11.828125 0.125 0  11.828125 -0.125 0  11.484375 0.125 0  11.484375 -0.125 0  9.078125 0.125 0  9.078125 -0.125 0  8.734375 0.125 0  8.734375 -0.125 0  8.390625 0.125 0  8.390625 -0.125 0  8.046875 0.125 0  8.046875 -0.125 0  7.703125 0.125 0  7.703125 -0.125 0  7.359375 0.125 0  7.359375 -0.125 0  7.015625 0.125 0  7.015625 -0.125 0  6.671875 0.125 0  6.671875 -0.125 0  11.140625 0.125 0  11.140625 -0.125 0  10.796875 0.125 0  10.796875 -0.125 0  10.453125 0.125 0  10.453125 -0.125 0  10.109375 0.125 0  10.109375 -0.125 0  9.765625 0.125 0  9.765625 -0.125 0  9.421875 0.125 0  9.421875 -0.125 0  3.046875 0.05859375 0  3.046875 -0.05859375 0  2.846431093850899 0.7350694856199397 0  2.640625 -0.05078125 0  2.640625 0.05078125 0  0.203125 0.99609375 0  6.362699038303388 0.6807243972366781 0  2.234375 0.04296875 0  2.234375 -0.04296875 0  11.581701212888 0.6822801732596659 0  11.35203598484848 0.6662326388888888 0  1.828125 0.03515625 0  1.828125 -0.03515625 0  5.984553033425814 0.6914815580202875 0  1.822525515412832 0.4475696738977717 0  1.41733060903937 0.5025442175645189 0  1.588893519464248 0.2357861358511414 0  3.654445727495178 0.7241715610932831 0  -0.2708370651139332 0.7990289667308481 0  1.421875 0.02734375 0  1.421875 -0.02734375 0  5.484375 0.89453125 0  2.633855454650776 0.460690271159621 0  2.40795634504651 0.2507007772874862 0  2.225403489025307 0.476130253335854 0  1.015625 -0.01953125 0  1.015625 0.01953125 0  3.227321013248274 0.265830895248878 0  3.445567521085816 0.4744107463092357 0  3.038321171612397 0.4840806912614364 0  0.609375 0.01171875 0  0.609375 -0.01171875 0  4.257720382725849 0.4888191036475296 0  4.047058936483319 0.2812008669921838 0  3.851174586896061 0.4920378211671812 0  0.609375 0.98828125 0  4.464694218296445 0.7031618514150944 0  4.671875 0.91015625 0  4.265625 0.91796875 0  3.453125 0.93359375 0  3.859375 0.92578125 0  2.640625 0.94921875 0  3.046875 0.94140625 0  2.234375 0.95703125 0  1.828125 0.96484375 0  1.421875 0.97265625 0  1.015625 0.98046875 0  5.484375 -0.10546875 0  4.060661963989729 0.6870321141431521 0  -2.34375 0 0  -2.34375 1 0  1.003521337202078 0.4664537109579014 0  3.646922073215719 0.2678295141073984 0  3.253141618048695 0.6711470624742265 0  0.3013894287350291 0.1773590807784885 0  -1.124347644480009 0.4398459561477482 0  2.831246172847781 0.248957659490205 0  2.446473427278441 0.6570274073729461 0  -2.198800970885971 0.1954869700666445 0  2.01591648071966 0.2304840455985115 0  0.827600060761903 0.2057214409193794 0  1.640609275971101 0.6442729681322822 0  -0.15625 0 0  6.483664772727272 0.3124999999999999 0  5.477125710212377 0.3518294601818938 0  11.41161533959385 0.3125 0  12 0.3125 0  11.04150966040615 0.3125 0  12 0.6875 0  1.198054295914707 0.2143210783083181 0  -1.40625 0 0  0.9109798103993655 0.8221220157670066 0  5.845812869360681 0.3162425406240469 0  0.4667569911039429 0.6726473502422988 0  0.4593425712678239 0.3353704711440587 0  8.211153274166278 0.6806358075271245 0  9.586153274166278 0.6806358075271245 0  6.835007346992159 0.6944141097550816 0  6.663707386363637 0.4925130208333334 0  10.96058238636364 0.680013020833333 0  -1.40625 1 0  -1.320649221029402 0.826171875 0  5.082724050007036 0.6788909168133963 0  -0.1275597151206816 0.375 0  0.7018834652202378 0.6003751687871122 0  -1.71875 0 0  5.523196914803937 0.7163232589905226 0  0.3602612407862962 0.5307539682539683 0  0.1786479052710517 0.5327459553507268 0  1.289006631999016 0.8051714473419221 0  -1.328125 0.156663781811377
[...]
<PointData  Vectors="f_169"> 
<DataArray  type="Float64"  Name="f_169"  NumberOfComponents="3" format="ascii">-5.4279081154152201e-18 1.5192412754793460e-17 0.0000000000000000e+00  2.0318650437293059e-01 -2.5000000000001349e-03 0.0000000000000000e+00  2.0318650437292962e-01 -2.5000000000001622e-03 0.0000000000000000e+00  1.9693845658289150e-01 -2.4999999999998327e-03 0.0000000000000000e+00  1.9693845658288406e-01 -2.4999999999998001e-03 0.0000000000000000e+00  -2.4992191160203080e-02 1.1788365234147770e-15 0.0000000000000000e+00  1.7819431321275028e-01 -2.4999999999985277e-03 0.0000000000000000e+00  1.7819431321273022e-01 -2.4999999999987138e-03 0.0000000000000000e+00  -2.4992191160206293e-02 1.0582544907658942e-15 0.0000000000000000e+00  -3.9241056861938066e-15 -2.9423431788678585e-17 0.0000000000000000e+00  9.8469228291442223e-02 -8.2499999999999414e-03 0.0000000000000000e+00  7.6601061026264433e-02 5.5000000000009182e-03 0.0000000000000000e+00  1.0159325218646795e-01 5.4999999999998982e-03 0.0000000000000000e+00  1.9693845658288606e-01 -2.4999999999998370e-03 0.0000000000000000e+00  1.7819431321273113e-01 -2.4999999999987576e-03 0.0000000000000000e+00  2.0318650437294428e-01 -2.5000000000002394e-03 0.0000000000000000e+00  4.9234614145722014e-02 -5.8749999999999428e-03 0.0000000000000000e+00  2.5804434933030872e-02 4.4375000000018991e-03 0.0000000000000000e+00  5.0796626093234112e-02 4.4374999999999745e-03 0.0000000000000000e+00  1.2739768711949895e-01 3.1875000000019240e-03 0.0000000000000000e+00  1.4770384243716489e-01 -7.1249999999998407e-03 0.0000000000000000e+00  1.5238987827970329e-01 3.1874999999998940e-03 0.0000000000000000e+00  1.9693845658288972e-01 -2.4999999999997685e-03 0.0000000000000000e+00  1.7819431321273679e-01 -2.4999999999984193e-03 0.0000000000000000e+00  2.0318650437293473e-01 -2.5000000000001145e-03 0.0000000000000000e+00  1.7819431321274526e-01 -2.4999999999985568e-03 0.0000000000000000e+00  1.9693845658289316e-01 -2.4999999999997776e-03 0.0000000000000000e+00  2.0318650437294650e-01 -2.5000000000001601e-03 0.0000000000000000e+00  -2.4992191160204864e-02 1.6001234974260477e-15 0.0000000000000000e+00  -1.6386587278797205e-15 1.4366719546629970e-17 0.0000000000000000e+00  2.4617307072860639e-02 -3.3749999999999857e-03 0.0000000000000000e+00  4.0612188641436266e-04 2.6406250000021426e-03 0.0000000000000000e+00  2.5398313046616001e-02 2.6406249999999889e-03 0.0000000000000000e+00  5.1202747979648577e-02 5.3906250000017777e-03 0.0000000000000000e+00  7.3851921218582181e-02 -7.4999999999999564e-03 0.0000000000000000e+00  7.6194939139850593e-02 5.3906249999999562e-03 0.0000000000000000e+00  1.2308653536430553e-01 -8.1249999999998476e-03 0.0000000000000000e+00  1.0199937407288180e-01 4.7656250000012480e-03 0.0000000000000000e+00  1.2699156523308686e-01 4.7656249999998342e-03 0.0000000000000000e+00  1.7232114951002300e-01 -5.2499999999998676e-03 0.0000000000000000e+00  1.5279600016611847e-01 7.6562500000115839e-04 0.0000000000000000e+00  1.7778819132632259e-01 7.6562499999986125e-04 0.0000000000000000e+00  -3.8420681440058144e-15 -3.6880935975791363e-17 0.0000000000000000e+00  -2.4992191160206633e-02 1.6278940612558397e-15 0.0000000000000000e+00  -1.0122691174432335e-15 1.0153233481807660e-17 0.0000000000000000e+00  -2.4992191160204288e-02 1.2148091855807313e-15 0.0000000000000000e+00  1.7819431321273532e-01 -2.4999999999985117e-03 0.0000000000000000e+00  1.9693845658288597e-01 -2.4999999999997459e-03 0.0000000000000000e+00  2.0318650437293870e-01 -2.5000000000001367e-03 0.0000000000000000e+00  1.9693845658288917e-01 -2.4999999999998769e-03 0.0000000000000000e+00  1.7819431321273119e-01 -2.4999999999983273e-03 0.0000000000000000e+00  2.0318650437293592e-01 -2.5000000000002282e-03 0.0000000000000000e+00  1.9693845658289572e-01 -2.4999999999997928e-03 0.0000000000000000e+00  1.7819431321273874e-01 -2.4999999999986379e-03 0.0000000000000000e+00  2.0318650437294561e-01 -2.5000000000001900e-03 0.0000000000000000e+00  1.9693845658289375e-01 -2.4999999999997368e-03 0.0000000000000000e+00  1.7819431321274329e-01 -2.4999999999990512e-03 0.0000000000000000e+00  2.0318650437294122e-01 -2.5000000000001145e-03 0.0000000000000000e+00  -1.2496095580101544e-02 6.0588768117876891e-16 0.0000000000000000e+00  2.4733541755793929e-02 -5.3791316996443803e-04 0.0000000000000000e+00  4.9750600059490370e-02 -8.8240740437021980e-04 0.0000000000000000e+00  7.4767655101806621e-02 -1.2112789096478667e-03 0.0000000000000000e+00  9.9784649390344565e-02 -1.5240117506284477e-03 0.0000000000000000e+00  -1.2496095580105221e-02 1.0781856354529303e-15 0.0000000000000000e+00  -1.2496095580108319e-02 1.7903141351773499e-15 0.0000000000000000e+00  -1.2496095580104477e-02 7.4700442273955418e-16 0.0000000000000000e+00  1.2480038218304562e-01 -1.8216507044737187e-03 0.0000000000000000e+00  1.6001249597359027e-01 -6.2968749999998894e-03 0.0000000000000000e+00  1.4009684364280447e-01 2.0820312500014590e-03 0.0000000000000000e+00  1.6508903480300818e-01 2.0820312499998453e-03 0.0000000000000000e+00  1.6549515668942824e-01 -7.6171874999808413e-04 0.0000000000000000e+00  1.8462980304645382e-01 -3.9843749999997884e-03 0.0000000000000000e+00  1.9048734784962659e-01 -7.6171875000017426e-04 0.0000000000000000e+00  1.8756618640122222e-01 -2.4999979908260045e-03 0.0000000000000000e+00  1.8750382275076763e-01 -2.4993665610395913e-03 0.0000000000000000e+00  1.8756285868466305e-01 -2.4999643077691018e-03 0.0000000000000000e+00  1.8646474914611325e-01 -2.4888369204013471e-03 0.0000000000000000e+00  1.8756638426798344e-01 -2.4999999936213286e-03 0.0000000000000000e+00  1.8756638486241112e-01 -2.4999999996395874e-03 0.0000000000000000e+00  1.8756638489782840e-01 -2.4999999999990299e-03 0.0000000000000000e+00  1.8756637370958137e-01 -2.4999998867503270e-03 0.0000000000000000e+00  4.4516898969718761e-03 -2.4745744579846875e-04 0.0000000000000000e+00  -1.1129335126029941e-02 8.3972157026321111e-16 0.0000000000000000e+00  -1.1129335126036897e-02 2.3492721442670492e-15 0.0000000000000000e+00  1.4355006368856082e-01 -2.0341931876239798e-03 0.0000000000000000e+00  1.6821300953892240e-01 -2.3002740786078300e-03 0.0000000000000000e+00  1.3539518890073154e-01 -7.7343749999999618e-03 0.0000000000000000e+00  1.3969072175639813e-01 4.0820312499999191e-03 0.0000000000000000e+00  1.1429240870977528e-01 5.2382812499998550e-03 0.0000000000000000e+00  1.1077788182787345e-01 -8.2968749999998790e-03 0.0000000000000000e+00  8.6160574755009281e-02 -7.9843749999999290e-03 0.0000000000000000e+00  8.8894095663158770e-02 5.5507812499999308e-03 0.0000000000000000e+00  6.3495782616541943e-02 5.0195312499999615e-03 0.0000000000000000e+00  6.1543267682151771e-02 -6.7968749999999488e-03 0.0000000000000000e+00  3.6925960609290584e-02 -4.7343749999999825e-03 0.0000000000000000e+00  3.8097469569924214e-02 3.6445312499999720e-03 0.0000000000000000e+00  1.1267454847018704e-01 -1.9066065856671720e-03 0.0000000000000000e+00  8.8027819967348639e-02 -1.8391808270047973e-03 0.0000000000000000e+00  3.8698860246656266e-02 -1.3461928458734791e-03 0.0000000000000000e+00  1.5500406109442336e-01 -1.8064331510253746e-03 0.0000000000000000e+00  6.3368769340432229e-02 -1.6753224719629962e-03 0.0000000000000000e+00  1.2308653536429785e-02 -1.7968750000000003e-03 0.0000000000000000e+00  1.2699156523308055e-02 1.4257812499999961e-03 0.0000000000000000e+00  -1.2293034636894677e-02 1.4257812500011460e-03 0.0000000000000000e+00  1.1469853059618725e-01 4.0820312500010033e-03 0.0000000000000000e+00  8.9300217549577260e-02 5.2382812500008525e-03 0.0000000000000000e+00  6.3901904502958295e-02 5.5507812500014582e-03 0.0000000000000000e+00  3.8503591456339706e-02 5.0195312500007248e-03 0.0000000000000000e+00  1.3105278409722703e-02 3.6445312500021474e-03 0.0000000000000000e+00  1.7819431321272766e-01 -2.4999999999986010e-03 0.0000000000000000e+00  1.8756638489380531e-01 -2.4999999999574907e-03 0.0000000000000000e+00  1.8275429235784588e-01 -2.4509386092888275e-03 0.0000000000000000e+00  2.0318650437293212e-01 -2.5000000000001822e-03 0.0000000000000000e+00  1.9693845658287965e-01 -2.4999999999999432e-03 0.0000000000000000e+00  2.0318650437294125e-01 -2.5000000000001258e-03 0.0000000000000000e+00  1.9693845658288700e-01 -2.4999999999998218e-03 0.0000000000000000e+00  2.0318650437294267e-01 -2.5000000000001787e-03 0.0000000000000000e+00  1.9693845658288159e-01 -2.4999999999998804e-03 0.0000000000000000e+00  2.0318650437293531e-01 -2.5000000000001800e-03 0.0000000000000000e+00  1.9693845658287992e-01 -2.4999999999998435e-03 0.0000000000000000e+00  2.0318650437293978e-01 -2.5000000000002108e-03 0.0000000000000000e+00  1.9693845658288464e-01 -2.4999999999998834e-03 0.0000000000000000e+00  2.0318650437293756e-01 -2.5000000000002052e-03 0.0000000000000000e+00  1.9693845658288522e-01 -2.4999999999999471e-03 0.0000000000000000e+00  2.0318650437293911e-01 -2.5000000000000981e-03 0.0000000000000000e+00  1.9693845658288506e-01 -2.4999999999997724e-03 0.0000000000000000e+00  2.0318650437294464e-01 -2.5000000000002034e-03 0.0000000000000000e+00  1.9693845658289871e-01 -2.4999999999997173e-03 0.0000000000000000e+00  -2.4992191160203774e-02 1.2088259398214793e-15 0.0000000000000000e+00  -2.4992191160206109e-02 1.8723566716896215e-15 0.0000000000000000e+00  1.8831480220032215e-01 -2.4999995267434125e-03 0.0000000000000000e+00  1.7819431321273671e-01 -2.4999999999988994e-03 0.0000000000000000e+00  1.8681791821141538e-01 -2.4999999733951615e-03 0.0000000000000000e+00  1.8831484880775898e-01 -2.4999999984979819e-03 0.0000000000000000e+00  1.7819431321272380e-01 -2.4999999999997693e-03 0.0000000000000000e+00  1.7819431321273868e-01 -2.4999999999983707e-03 0.0000000000000000e+00  1.7819431321273430e-01 -2.4999999999997117e-03 0.0000000000000000e+00  1.8655677012607463e-01 -2.4972373331673811e-03 0.0000000000000000e+00  1.8830011469271002e-01 -2.4998512220336744e-03 0.0000000000000000e+00  1.7819431321273349e-01 -2.4999999999987602e-03 0.0000000000000000e+00  1.8681709242393382e-01 -2.4999916135540748e-03 0.0000000000000000e+00  1.7819431321273729e-01 -2.4999999999988035e-03 0.0000000000000000e+00  1.7819431321273865e-01 -2.4999999999984258e-03 0.0000000000000000e+00  1.1222448082950255e-02 4.9415557583252123e-04 0.0000000000000000e+00  -2.7045716220041711e-15 1.6171137404728512e-17 0.0000000000000000e+00  -5.6615046240305911e-16 3.0124867232663139e-17 0.0000000000000000e+00  -6.2480477900507814e-03 2.7963554787934438e-16 0.0000000000000000e+00  -8.6834448433223445e-03 2.8525144628617792e-04 0.0000000000000000e+00  2.4675424416299867e-02 -2.2583875897899475e-03 0.0000000000000000e+00  2.6832204043964168e-02 1.4429601803531197e-03 0.0000000000000000e+00  -1.6303499702168500e-02 1.5194798230988730e-15 0.0000000000000000e+00  -8.1517498510837900e-03 1.1979714276097479e-15 0.0000000000000000e+00  -3.1848130438729142e-15 2.0997064014940840e-17 0.0000000000000000e+00  -2.4992191160205200e-02 1.6671864986214386e-15 0.0000000000000000e+00  -1.5119947883715423e-15 2.4560180049711666e-17 0.0000000000000000e+00  -2.4992191160205020e-02 1.1361734209171637e-15 0.0000000000000000e+00  3.7777517527998745e-02 1.9827704816894826e-03 0.0000000000000000e+00  5.1590112296383828e-02 1.8369136955732174e-03 0.0000000000000000e+00  1.3676618620450104e-01 -3.2821597965368588e-03 0.0000000000000000e+00  -8.9817894625123093e-04 -3.9889392155227562e-04 0.0000000000000000e+00  7.6350908966667269e-02 1.9032023094251184e-03 0.0000000000000000e+00  6.2985202098840273e-02 2.1947445447748704e-03 0.0000000000000000e+00  1.0111369891854245e-01 1.6065824047068608e-03 0.0000000000000000e+00  8.8192866116655291e-02 1.9901977137787462e-03 0.0000000000000000e+00  -1.8744143370153562e-02 6.2379249334421150e-16 0.0000000000000000e+00  -6.2480477900540487e-03 9.4813600910454544e-16 0.0000000000000000e+00  -1.8744143370152309e-02 1.3589787902620457e-15 0.0000000000000000e+00  -6.2480477900543636e-03 3.5900682793040953e-16 0.0000000000000000e+00  -1.7135688106245248e-02 2.1316840014933934e-15 0.0000000000000000e+00  -7.1266795105356965e-03 1.7997302289027983e-15 0.0000000000000000e+00  -1.8744143370158364e-02 2.1845380658230235e-15 0.0000000000000000e+00  1.7422500142602654e-01 -2.0840183029653624e-03 0.0000000000000000e+00  1.1340011424737917e-01 1.3674441757849315e-03 0.0000000000000000e+00  1.2609755425866129e-01 8.4559597849855506e-04 0.0000000000000000e+00  5.0123813757713256e-02 -3.8786626463321364e-03 0.0000000000000000e+00  7.4766726857509042e-02 -4.7244670475073769e-03 0.0000000000000000e+00  3.5952812911921005e-02 -2.8851110298403863e-03 0.0000000000000000e+00  -1.8610767349987203e-02 2.0896241477048950e-15 0.0000000000000000e+00  9.9404210326016096e-02 -5.0600649441895030e-03 0.0000000000000000e+00  6.0991088455028743e-02 -3.9999029123772524e-03 0.0000000000000000e+00  1.2403525956304826e-01 -4.9211026782532133e-03 0.0000000000000000e+00  8.6033386860711797e-02 -4.6630196132309062e-03 0.0000000000000000e+00  1.1108093876987796e-01 -4.8759433114114537e-03 0.0000000000000000e+00  2.8338992604337040e-04 1.0289424842073039e-03 0.0000000000000000e+00  1.3219916219242456e-02 -1.6060938718293041e-03 0.0000000000000000e+00  1.8297344477096128e-01 -2.8550936807416852e-03 0.0000000000000000e+00  -1.4870051238007652e-02 1.4894194055417506e-15 0.0000000000000000e+00  -1.8934772289383901e-02 2.9529442593480852e-15 0.0000000000000000e+00  1.9028363483742713e-01 -2.4999999998901274e-03 0.0000000000000000e+00  1.9028363484709027e-01 -2.4999999999882963e-03 0.0000000000000000e+00  -6.6068399377221575e-03 1.0069619065363594e-15 0.0000000000000000e+00  1.8325458102610381e-01 -2.4999999994086666e-03 0.0000000000000000e+00  1.9225213244783232e-01 -2.4999970831441217e-03 0.0000000000000000e+00  1.9225120431168422e-01 -2.4999877090634520e-03 0.0000000000000000e+00  1.9216153997945046e-01 -2.4991968612988152e-03 0.0000000000000000e+00  1.9186885944699988e-01 -2.4981724332503027e-03 0.0000000000000000e+00  1.9225241982563354e-01 -2.4999999907397981e-03 0.0000000000000000e+00  1.9225241688096634e-01 -2.4999999609341696e-03 0.0000000000000000e+00  1.9060663957982052e-01 -2.5187950064408811e-03 0.0000000000000000e+00  1.8140143304653028e-01 -2.4418707596964399e-03 0.0000000000000000e+00  1.8385564221618364e-01 -2.4999999999913863e-03 0.0000000000000000e+00  1.8325456269152809e-01 -2.4999998138225672e-03 0.0000000000000000e+00  1.8325451348113989e-01 -2.4999993156618089e-03 0.0000000000000000e+00  1.8325458086982763e-01 -2.4999999978257848e-03 0.0000000000000000e+00  1.8288034904309786e-01 -2.4999999998756412e-03 0.0000000000000000e+00  1.8324878952755841e-01 -2.4999409471468327e-03 0.0000000000000000e+00  1.8323329786915002e-01 -2.4997788495332114e-03 0.0000000000000000e+00  -9.3720716850817076e-03 1.2414997192527559e-15 0.0000000000000000e+00  -6.6345387599417351e-03 8.4949128930506293e-16 0.0000000000000000e+00  1.4564182837395166e-02 -9.9636947512764186e-04 0.0000000000000000e+00  -1.8744143370156115e-02 1.1083714517831554e-15 0.0000000000000000e+00  -6.2404260056817670e-03 9.8114440045335422e-16 0.0000000000000000e+00  1.9260647681656742e-01 -2.4998024263988357e-03 0.0000000000000000e+00  1.9262187414855395e-01 -2.4999520062408145e-03 0.0000000000000000e+00  1.9262665256646910e-01 -2.4999999979442209e-03 0.0000000000000000e+00  1.9225242069224491e-01 -2.4999999995118194e-03 0.0000000000000000e+00  1.9262658876214089e-01 -2.4999993521906999e-03 0.0000000000000000e+00  1.9262663760989399e-01 -2.4999998465584559e-03 0.0000000000000000e+00  1.8288034819675081e-01 -2.4999999913077053e-03 0.0000000000000000e+00  1.8250611342586981e-01 -2.4999999635541620e-03 0.0000000000000000e+00  1.8279520995909554e-01 -2.4990353841314499e-03 0.0000000000000000e+00  1.8214875480465731e-01 -2.4943477840521310e-03 0.0000000000000000e+00  1.8288007844383286e-01 -2.4999972597980966e-03 0.0000000000000000e+00  1.8250498209397517e-01 -2.4999884908237934e-03 0.0000000000000000e+00  1.5836719956152986e-02 1.4484996197806994e-03 0.0000000000000000e+00  1.5375007343989081e-01 -3.5529962514960008e-03 0.0000000000000000e+00  1.5385816920537451e-01 -6.7382812499997722e-03 0.0000000000000000e+00  1.5873945654135468e-01 2.6611328124998826e-03 0.0000000000000000e+00  1.6510008750781618e-01 -3.2809509996758962e-03 0.0000000000000000e+00  -1.8141143623205500e-02 1.7058079735826380e-15 0.0000000000000000e+00  -1.9208203083247985e-02 8.0973329237666677e-16 0.0000000000000000e+00  6.1543267682151329e-03 -9.2578125000001372e-04 0.0000000000000000e+00  6.3495782616538980e-03 7.3925781250000597e-04 0.0000000000000000e+00  1.9078412981466666e-01 -3.2695312499997774e-03 0.0000000000000000e+00  1.9683692611128575e-01 -1.6044921875001874e-03 0.0000000000000000e+00  -5.1253517027801104e-03 1.2053040969683237e-15 0.0000000000000000e+00  -1.3086589174339417e-02 9.2434480788206197e-16 0.0000000000000000e+00  -5.5646675630157266e-03 7.0599162983378579e-16 0.0000000000000000e+00  -1.3101685874637515e-02 2.1722790567736934e-15 0.0000000000000000e+00  1.6616682274180788e-01 -5.8007812499998859e-03 0.0000000000000000e+00  1.8413776958797928e-01 2.8320312499877436e-05 0.0000000000000000e+00  1.7847547627824234e-01 -4.6445312499997348e-03 0.0000000000000000e+00  1.3417964303209709e-01 1.4272153065353910e-04 0.0000000000000000e+00  1.4552637617528491e-01 -4.6842719616196080e-04 0.0000000000000000e+00  1.4562722156073893e-01 -4.4694929298892466e-03 0.0000000000000000e+00  1.4154951566895063e-01 -7.4570312499998639e-03 0.0000000000000000e+00  1.4604030001805082e-01 3.6611328124998774e-03 0.0000000000000000e+00  1.3374726538115561e-01 2.6611328125016698e-03 0.0000000000000000e+00  1.3334114349474052e-01 4.4501953124999345e-03 0.0000000000000000e+00  1.2924086213251748e-01 -7.9570312499998852e-03 0.0000000000000000e+00  1.7683166833105629e-01 -3.1359659897344421e-03 0.0000000000000000e+00  1.5914557842776830e-01 2.8320312501670100e-05 0.0000000000000000e+00  1.5885602088563328e-01 -1.1133563883586938e-03 0.0000000000000000e+00  1.7184473495108049e-01 -1.6044921874985066e-03 0.0000000000000000e+00  1.1693220859608773e-01 -8.2382812499999878e-03 0.0000000000000000e+00  1.2064198697143176e-01 5.0283203124999410e-03 0.0000000000000000e+00  1.3301518080801317e-01 -4.7066110937790387e-03 0.0000000000000000e+00  4.4854482615579200e-02 1.8387721473082771e-03 0.0000000000000000e+00  1.0462355505965794e-01 -8.3007812499999167e-03 0.0000000000000000e+00  1.0794283044812190e-01 5.3955078124999292e-03 0.0000000000000000e+00  1.9693845658289025e-01 -2.4999999999998491e-03 0.0000000000000000e+00  2.0318650437293356e-01 -2.5000000000001224e-03 0.0000000000000000e+00  1.9693845658289560e-01 -2.4999999999997949e-03 0.0000000000000000e+00  2.0318650437293501e-01 -2.5000000000001358e-03 0.0000000000000000e+00  1.9693845658288167e-01 -2.4999999999997815e-03 0.0000000000000000e+00  2.0318650437293692e-01 -2.5000000000001813e-03 0.0000000000000000e+00  1.9693845658289080e-01 -2.4999999999997902e-03 0.0000000000000000e+00  2.0318650437294761e-01 -2.5000000000001987e-03 0.0000000000000000e+00  1.9693845658288972e-01 -2.4999999999997542e-03 0.0000000000000000e+00  2.0318650437293465e-01 -2.5000000000000963e-03 0.0000000000000000e+00  1.9693845658289053e-01 -2.5000000000000972e-03 0.0000000000000000e+00  2.0318650437293553e-01 -2.5000000000001714e-03 0.0000000000000000e+00  1.9693845658288922e-01 -2.4999999999997802e-03 0.0000000000000000e+00  2.0318650437293620e-01 -2.5000000000001605e-03 0.0000000000000000e+00  1.9693845658288262e-01 -2.4999999999997980e-03 0.0000000000000000e+00  2.0318650437293417e-01 -2.5000000000001280e-03 0.0000000000000000e+00  1.9693845658289338e-01 -2.4999999999999012e-03 0.0000000000000000e+00  2.0318650437293889e-01 -2.5000000000002603e-03 0.0000000000000000e+00  1.9693845658288231e-01 -2.4999999999998348e-03 0.0000000000000000e+00  2.0318650437293065e-01 -2.5000000000001783e-03 0.0000000000000000e+00  1.9693845658289547e-01 -2.4999999999997893e-03 0.00000000