<?xml version="1.0"?>
<VTKFile type="UnstructuredGrid"  version="0.1"  >
<UnstructuredGrid>
<Piece  NumberOfPoints="6614" NumberOfCells="12519">
<Points>
<DataArray  type="Float64"  NumberOfComponents="3"  format="ascii">0 0 0  6.5 -0.125 0  12 -0.125 0  12 0.125 0  6.5 0.125 0  0 1 0  12 0.875 0  6.5 0.875 0  -2.5 1 0  -2.5 0 0  3.25 0.0625 0  3.25 0.9375 0  3.25 -0.0625 0  9.25 0.125 0  9.25 0.875 0  9.25 -0.125 0  1.625 0.03125 0  1.625 0.96875 0  1.625 -0.03125 0  4.875 0.90625 0  4.875 0.09375 0  4.875 -0.09375 0  7.875 0.125 0  7.875 0.875 0  7.875 -0.125 0  10.625 0.875 0  10.625 0.125 0  10.625 -0.125 0  -1.25 1 0  -1.25 0 0  0.8125 0.015625 0  0.8125 0.984375 0  0.8125 -0.015625 0  2.4375 0.953125 0  2.4375 0.046875 0  2.4375 -0.046875 0  4.0625 0.078125 0  4.0625 0.921875 0  4.0625 -0.078125 0  5.6875 0.109375 0  5.6875 0.890625 0  5.6875 -0.109375 0  -1.875 0 0  -1.875 1 0  -0.625 0 0  -0.625 1 0  8.5625 0.875 0  8.5625 0.125 0  8.5625 -0.125 0  7.1875 0.125 0  7.1875 0.875 0  7.1875 -0.125 0  11.3125 0.125 0  11.3125 0.875 0  11.3125 -0.125 0  9.9375 0.125 0  9.9375 0.875 0  9.9375 -0.125 0  0 0.5 0  1.209585336538462 0.5 0  2.022385817307693 0.5 0  2.835186298076923 0.5 0  3.647986778846154 0.5 0  -0.9375 0.5 0  -1.5625 0.5 0  -2.5 0.5 0  4.460787259615385 0.5 0  5.28125 0.1015625 0  5.28125 0.8984375 0  5.28125 -0.1015625 0  6.09375 0.8828125 0  6.09375 0.1171875 0  6.09375 -0.1171875 0  8.90625 0.5 0  7.53125 0.5 0  8.21875 0.5 0  6.84375 0.5 0  10.28125 0.5 0  10.96875 0.5 0  12 0.5 0  9.59375 0.5 0  0.5506310096153846 0.5 0  -0.46875 0.4453125 0  -2.03125 0.4453125 0  5.070387620192307 0.5 0  5.883188100961538 0.5 0  4.46875 0.0859375 0  4.46875 -0.0859375 0  3.65625 -0.0703125 0  3.65625 0.0703125 0  2.84375 0.0546875 0  2.84375 -0.0546875 0  2.03125 -0.0390625 0  2.03125 0.0390625 0  1.21875 0.0234375 0  1.21875 -0.0234375 0  4.054387019230769 0.4847310450995098 0  3.241586538461538 0.4699247074852732 0  1.615985576923077 0.4417102219320143 0  5.476787860576923 0.53993893765092 0  2.428786057692307 0.4556005042418 0  0.40625 0.0078125 0  0.40625 -0.0078125 0  0.40625 0.9921875 0  4.46875 0.9140625 0  3.65625 0.9296875 0  2.84375 0.9453125 0  2.03125 0.9609375 0  1.21875 0.9765625 0  11.65625 0.875 0  11.484375 0.5 0  6.467329545454546 0.5 0  9.59375 -0.125 0  9.59375 0.125 0  10.28125 -0.125 0  10.28125 0.125 0  10.96875 -0.125 0  10.96875 0.125 0  6.84375 -0.125 0  6.84375 0.125 0  7.53125 -0.125 0  7.53125 0.125 0  8.21875 -0.125 0  8.21875 0.125 0  8.90625 -0.125 0  8.90625 0.125 0  11.65625 -0.125 0  11.65625 0.125 0  -0.3125 1 0  -2.1875 1 0  9.25 0.4700520833333333 0  9.59375 0.875 0  9.9375 0.5299479166666666 0  10.625 0.4700520833333333 0  10.96875 0.875 0  10.28125 0.875 0  6.84375 0.875 0  7.1875 0.5299479166666666 0  7.875 0.4700520833333333 0  8.21875 0.875 0  8.5625 0.5299479166666666 0  7.53125 0.875 0  8.90625 0.875 0  0.8801081730769231 0.63484883039911 0  -2.1875 0 0  -0.3125 0 0  0 0.25 0  0.2753155048076923 0.6865079365079365 0  1.011042668269231 0.2578125 0  1.446827777824054 0.7082004557951647 0  -1.25 0.65234375 0  -1.284375 0.326171875 0  -1.5625 0 0  -1.5625 1 0  -0.9375 0 0  -0.9375 1 0  1.823692908653846 0.7343749999999999 0  2.250687166802934 0.7075583934794667 0  4.765587439903847 0.3964836665810265 0  0.2753155048076923 0.375 0  3.054829110674799 0.707148526758953 0  2.636343149038462 0.7265625000000001 0  3.859250973615127 0.7069998487229827 0  3.448993389423077 0.7187500000000001 0  -0.78125 0.75 0  -0.78125 0.25 0  0 0.75 0  -2.5 0.25 0  -2.240776699029126 0.6856416868932038 0  -1.775 0.28515625 0  -1.71875 0.75 0  6.175258823208043 0.5886645441611957 0  4.261643629807693 0.7109374999999998 0  4.667893629807693 0.7031250000000002 0  1.824167367109634 0.2409531602990362 0  2.636686615214766 0.2555772588321514 0  1.38325552388875 0.2649704395311445 0  -0.46875 0.7446632922535211 0  3.449201796915416 0.2704128103983777 0  2.203202991433102 0.2729232708226779 0  4.261712450328808 0.2854838329019752 0  3.023283383806745 0.2808786583609286 0  3.843540099517909 0.288837436732593 0  0.6331235396611878 0.7683768130429148 0  0.6054339511832376 0.2166532884716425 0  6.256771799991964 0.3317884692185022 0  -0.2486470253814554 0.5949878961267605 0  -1.984670937186905 0.7576275392581842 0  11.2265625 0.3912760416666667 0  11.7421875 0.3912760416666667 0  -1.036405127827206 0.2643561701079966 0  10.78053977272727 0.6725260416666666 0  8.734375 0.3125 0  8.390625 0.3125 0  7.359375 0.3125 0  7.015625 0.3125 0  10.109375 0.3125 0  9.765625 0.3125 0  6.671875 0.3125 0  6.655539772727273 0.6725260416666669 0  11.78555345556989 0.6484760842723984 0  9.405539772727273 0.6725260416666666 0  9.094460227272727 0.6725260416666666 0  10.46946022727273 0.6725260416666666 0  11.140625 0.6875 0  8.030539772727273 0.6725260416666666 0  7.719460227272728 0.6725260416666666 0  -2.277018229166667 0.375 0  -0.2686215753424658 0.2654644691780822 0  0.7924173055676504 0.3931430043056919 0  -2.5 0.75 0  -1.525008560462654 0.2496950333675564 0  7.703125 0.2975260416666667 0  8.046875 0.2975260416666666 0  10.453125 0.2975260416666667 0  10.81190567787247 0.3125 0  9.078125 0.2975260416666667 0  9.421875 0.2975260416666666 0  10.12440567787247 0.6875 0  9.765625 0.7024739583333333 0  7.374405677872475 0.6875 0  7.015625 0.7024739583333333 0  8.749405677872474 0.6875 0  8.390625 0.7024739583333333 0  1.115551444307063 0.7401777158454262 0  5.28922999544003 0.360801083570939 0  5.078125 0.09765625 0  5.078125 -0.09765625 0  5.664767392260801 0.3650917682044265 0  -1.479229041916168 0.7258724738023952 0  -1.029665898617512 0.7685681883640553 0  0.203125 0.00390625 0  0.203125 -0.00390625 0  6.296875 0.12109375 0  6.296875 -0.12109375 0  -2.00322265625 0.205078125 0  -0.6971783980582524 0.5236271237864077 0  -0.546875 0.22265625 0  -1.801855111236272 0.5242311804773303 0  5.484375 0.10546875 0  5.890625 -0.11328125 0  5.890625 0.11328125 0  4.903633313301282 0.6699100680171115 0  5.260369462255295 0.6544725809557483 0  4.972693810096154 0.296875 0  4.671875 0.08984375 0  4.671875 -0.08984375 0  5.078125 0.90234375 0  4.265625 -0.08203125 0  4.265625 0.08203125 0  6.03259461594712 0.3328645427790781 0  5.890625 0.88671875 0  5.692656615207549 0.6488796598294736 0  6.296875 0.87890625 0  3.859375 0.07421875 0  3.859375 -0.07421875 0  4.561082497482947 0.2948209397629855 0  2.036725213111611 0.7135654082038703 0  3.453125 0.06640625 0  3.453125 -0.06640625 0  11.828125 0.125 0  11.828125 -0.125 0  11.484375 0.125 0  11.484375 -0.125 0  9.078125 0.125 0  9.078125 -0.125 0  8.734375 0.125 0  8.734375 -0.125 0  8.390625 0.125 0  8.390625 -0.125 0  8.046875 0.125 0  8.046875 -0.125 0  7.703125 0.125 0  7.703125 -0.125 0  7.359375 0.125 0  7.359375 -0.125 0  7.015625 0.125 0  7.015625 -0.125 0  6.671875 0.125 0  6.671875 -0.125 0  11.140625 0.125 0  11.140625 -0.125 0  10.796875 0.125 0  10.796875 -0.125 0  10.453125 0.125 0  10.453125 -0.125 0  10.109375 0.125 0  10.109375 -0.125 0  9.765625 0.125 0  9.765625 -0.125 0  9.421875 0.125 0  9.421875 -0.125 0  3.046875 0.05859375 0  3.046875 -0.05859375 0  2.846431093850899 0.7350694856199397 0  2.640625 -0.05078125 0  2.640625 0.05078125 0  0.203125 0.99609375 0  6.362699038303388 0.6807243972366781 0  2.234375 0.04296875 0  2.234375 -0.04296875 0  11.581701212888 0.6822801732596659 0  11.35203598484848 0.6662326388888888 0  1.828125 0.03515625 0  1.828125 -0.03515625 0  5.984553033425814 0.6914815580202875 0  1.822525515412832 0.4475696738977717 0  1.41733060903937 0.5025442175645189 0  1.588893519464248 0.2357861358511414 0  3.654445727495178 0.7241715610932831 0  -0.2708370651139332 0.7990289667308481 0  1.421875 0.02734375 0  1.421875 -0.02734375 0  5.484375 0.89453125 0  2.633855454650776 0.460690271159621 0  2.40795634504651 0.2507007772874862 0  2.225403489025307 0.476130253335854 0  1.015625 -0.01953125 0  1.015625 0.01953125 0  3.227321013248274 0.265830895248878 0  3.445567521085816 0.4744107463092357 0  3.038321171612397 0.4840806912614364 0  0.609375 0.01171875 0  0.609375 -0.01171875 0  4.257720382725849 0.4888191036475296 0  4.047058936483319 0.2812008669921838 0  3.851174586896061 0.4920378211671812 0  0.609375 0.98828125 0  4.464694218296445 0.7031618514150944 0  4.671875 0.91015625 0  4.265625 0.91796875 0  3.453125 0.93359375 0  3.859375 0.92578125 0  2.640625 0.94921875 0  3.046875 0.94140625 0  2.234375 0.95703125 0  1.828125 0.96484375 0  1.421875 0.97265625 0  1.015625 0.98046875 0  5.484375 -0.10546875 0  4.060661963989729 0.6870321141431521 0  -2.34375 0 0  -2.34375 1 0  1.003521337202078 0.4664537109579014 0  3.646922073215719 0.2678295141073984 0  3.253141618048695 0.6711470624742265 0  0.3013894287350291 0.1773590807784885 0  -1.124347644480009 0.4398459561477482 0  2.831246172847781 0.248957659490205 0  2.446473427278441 0.6570274073729461 0  -2.198800970885971 0.1954869700666445 0  2.01591648071966 0.2304840455985115 0  0.827600060761903 0.2057214409193794 0  1.640609275971101 0.6442729681322822 0  -0.15625 0 0  6.483664772727272 0.3124999999999999 0  5.477125710212377 0.3518294601818938 0  11.41161533959385 0.3125 0  12 0.3125 0  11.04150966040615 0.3125 0  12 0.6875 0  1.198054295914707 0.2143210783083181 0  -1.40625 0 0  0.9109798103993655 0.8221220157670066 0  5.845812869360681 0.3162425406240469 0  0.4667569911039429 0.6726473502422988 0  0.4593425712678239 0.3353704711440587 0  8.211153274166278 0.6806358075271245 0  9.586153274166278 0.6806358075271245 0  6.835007346992159 0.6944141097550816 0  6.663707386363637 0.4925130208333334 0  10.96058238636364 0.680013020833333 0  -1.40625 1 0  -1.320649221029402 0.826171875 0  5.082724050007036 0.6788909168133963 0  -0.1275597151206816 0.375 0  0.7018834652202378 0.6003751687871122 0  -1.71875 0 0  5.523196914803937 0.7163232589905226 0  0.3602612407862962 0.5307539682539683 0  0.1786479052710517 0.5327459553507268 0  1.289006631999016 0.8051714473419221 0  -1.328125 0.156663781811377
[...]
<PointData  Vectors="f_177"> 
<DataArray  type="Float64"  Name="f_177"  NumberOfComponents="3" format="ascii">-7.1004552222236829e-18 1.4252585654931404e-17 0.0000000000000000e+00  3.1240238950306994e-03 -1.4940296786282812e-16 0.0000000000000000e+00  3.1240238950304340e-03 -1.5755074424016001e-16 0.0000000000000000e+00  -3.1240238950076289e-03 1.5702047989248900e-16 0.0000000000000000e+00  -3.1240238950166785e-03 2.0411332896184386e-16 0.0000000000000000e+00  -2.4992191160203084e-02 1.0934101791522711e-15 0.0000000000000000e+00  -2.1868167265152963e-02 1.1837579572242435e-15 0.0000000000000000e+00  -2.1868167265169675e-02 1.1325733586809470e-15 0.0000000000000000e+00  -2.4992191160206293e-02 1.0582544907658942e-15 0.0000000000000000e+00  -3.9241056861938066e-15 -2.9423431788678585e-17 0.0000000000000000e+00  -1.5620119475078928e-03 6.2116159088742728e-17 0.0000000000000000e+00  -2.3430179212685288e-02 8.2127610762261671e-16 0.0000000000000000e+00  1.5620119475171549e-03 -9.3088795352560990e-17 0.0000000000000000e+00  -3.1240238950139242e-03 1.5345439631477414e-16 0.0000000000000000e+00  -2.1868167265169203e-02 1.1514740080412544e-15 0.0000000000000000e+00  3.1240238950464268e-03 -2.5192939761046202e-16 0.0000000000000000e+00  -7.8100597375297537e-04 5.5207557694433589e-17 0.0000000000000000e+00  -2.4211185186443888e-02 1.7870227987662557e-15 0.0000000000000000e+00  7.8100597375888308e-04 -2.3749567916970885e-17 0.0000000000000000e+00  -2.2649173238927081e-02 1.7344304528068272e-15 0.0000000000000000e+00  -2.3430179212599162e-03 1.6896625230193502e-16 0.0000000000000000e+00  2.3430179212772010e-03 -9.3596704670441631e-17 0.0000000000000000e+00  -3.1240238950075759e-03 2.2212106670219420e-16 0.0000000000000000e+00  -2.1868167265162369e-02 1.5454996417237406e-15 0.0000000000000000e+00  3.1240238950340378e-03 -1.3278382834572297e-16 0.0000000000000000e+00  -2.1868167265156290e-02 1.1493212926051609e-15 0.0000000000000000e+00  -3.1240238950059822e-03 1.8657177401430242e-16 0.0000000000000000e+00  3.1240238950469498e-03 -1.7752727364958712e-16 0.0000000000000000e+00  -2.4992191160204864e-02 1.6001234974260477e-15 0.0000000000000000e+00  -1.6386587278797203e-15 1.4366719546629970e-17 0.0000000000000000e+00  -3.9050298687681121e-04 1.0298416435028107e-17 0.0000000000000000e+00  -2.4601688173323137e-02 1.9605074456654898e-15 0.0000000000000000e+00  3.9050298687851709e-04 -8.6614901809650398e-18 0.0000000000000000e+00  -2.3820682199564659e-02 1.7899666321990496e-15 0.0000000000000000e+00  -1.1715089606304792e-03 4.7050073078097635e-17 0.0000000000000000e+00  1.1715089606376839e-03 -4.4397372246470616e-17 0.0000000000000000e+00  -1.9525149343813883e-03 1.4967913972005694e-16 0.0000000000000000e+00  -2.3039676225806507e-02 1.1537133050963568e-15 0.0000000000000000e+00  1.9525149343993223e-03 -1.5651493584463276e-16 0.0000000000000000e+00  -2.7335209081383919e-03 1.4466920011934799e-16 0.0000000000000000e+00  -2.2258670252045094e-02 1.0040504238730110e-15 0.0000000000000000e+00  2.7335209081585806e-03 -1.6319067255388664e-16 0.0000000000000000e+00  -3.8420681440058144e-15 -3.6880935975791363e-17 0.0000000000000000e+00  -2.4992191160206633e-02 1.6278940612558397e-15 0.0000000000000000e+00  -1.0122691174432335e-15 1.0153233483598364e-17 0.0000000000000000e+00  -2.4992191160204295e-02 1.2148091855800538e-15 0.0000000000000000e+00  -2.1868167265165907e-02 1.2923333580855731e-15 0.0000000000000000e+00  -3.1240238950132060e-03 2.6079405020101438e-16 0.0000000000000000e+00  3.1240238950396471e-03 -1.3726502100954602e-16 0.0000000000000000e+00  -3.1240238950104998e-03 1.2560896767640051e-16 0.0000000000000000e+00  -2.1868167265167118e-02 1.6253830952741057e-15 0.0000000000000000e+00  3.1240238950358359e-03 -2.3049141756272121e-16 0.0000000000000000e+00  -3.1240238950036763e-03 2.2615011200452003e-16 0.0000000000000000e+00  -2.1868167265161009e-02 1.2825996350033521e-15 0.0000000000000000e+00  3.1240238950467573e-03 -2.1022403923127529e-16 0.0000000000000000e+00  -3.1240238950045558e-03 2.6640903702525054e-16 0.0000000000000000e+00  -2.1868167265155513e-02 9.1779923389285619e-16 0.0000000000000000e+00  3.1240238950432922e-03 -1.3228874070981895e-16 0.0000000000000000e+00  -1.2496095580101547e-02 6.2183866877304756e-16 0.0000000000000000e+00  -1.2496095580096641e-02 1.0063304223788549e-15 0.0000000000000000e+00  -1.2496095580096791e-02 1.4666101031373834e-15 0.0000000000000000e+00  -1.2496095580093512e-02 1.4843333923104468e-15 0.0000000000000000e+00  -1.2496095580093418e-02 7.6664097154909246e-16 0.0000000000000000e+00  -1.2496095580105221e-02 1.0781856354529332e-15 0.0000000000000000e+00  -1.2496095580108319e-02 1.7903141351773499e-15 0.0000000000000000e+00  -1.2496095580104477e-02 7.4700442273955418e-16 0.0000000000000000e+00  -1.2496095580084684e-02 1.7639698636864099e-15 0.0000000000000000e+00  -2.5382694147030138e-03 1.2551542993521251e-16 0.0000000000000000e+00  -2.2453921745489793e-02 1.3230521864826217e-15 0.0000000000000000e+00  2.5382694147146933e-03 -1.6491802413908117e-16 0.0000000000000000e+00  -2.2063418758604191e-02 1.7676013280721562e-15 0.0000000000000000e+00  -2.9287724015778808e-03 1.8668108340212389e-16 0.0000000000000000e+00  2.9287724015952740e-03 -1.7238595818251761e-16 0.0000000000000000e+00  -1.2496095580076531e-02 2.0747688257198086e-15 0.0000000000000000e+00  -1.2496095580069868e-02 2.1427487427582429e-15 0.0000000000000000e+00  -1.2496095580057631e-02 3.2793874278566348e-15 0.0000000000000000e+00  -1.2496095580082849e-02 1.1552998317928849e-15 0.0000000000000000e+00  -1.2496095580046719e-02 3.2721885757288352e-15 0.0000000000000000e+00  -1.2496095580061850e-02 1.8188113272778810e-15 0.0000000000000000e+00  -1.2496095580076926e-02 9.1877295795944620e-16 0.0000000000000000e+00  -1.2496095580062348e-02 2.8206167640646463e-15 0.0000000000000000e+00  -1.2496095580100499e-02 1.3766869781525316e-15 0.0000000000000000e+00  -1.1129335126029937e-02 8.3972156448258641e-16 0.0000000000000000e+00  -1.1129335126036897e-02 2.3492721442670492e-15 0.0000000000000000e+00  -1.2496095580088134e-02 1.7542622642965984e-15 0.0000000000000000e+00  -1.2496095580090199e-02 1.2763673242391724e-15 0.0000000000000000e+00  -2.1477664278238490e-03 3.5191743713290295e-17 0.0000000000000000e+00  2.1477664278397655e-03 -7.9483667306084362e-17 0.0000000000000000e+00  1.7572634409563153e-03 -1.3330009925019855e-16 0.0000000000000000e+00  -1.7572634409459451e-03 1.2405818861786535e-16 0.0000000000000000e+00  -1.3667604540711022e-03 7.6567421857985812e-17 0.0000000000000000e+00  1.3667604540760925e-03 -7.2073005999623875e-17 0.0000000000000000e+00  9.7625746719818358e-04 -3.8435331375255123e-17 0.0000000000000000e+00  -9.7625746719180121e-04 5.2675916570604543e-17 0.0000000000000000e+00  -5.8575448031564670e-04 2.1108053320033575e-17 0.0000000000000000e+00  5.8575448031742718e-04 -2.9643734202097903e-17 0.0000000000000000e+00  -1.2114490940402596e-02 1.2093913377706001e-15 0.0000000000000000e+00  -1.1744448120369332e-02 1.3572310490016801e-15 0.0000000000000000e+00  -1.1039306303933207e-02 2.5247149784023281e-15 0.0000000000000000e+00  -1.3494257144592308e-02 9.6452407060328355e-16 0.0000000000000000e+00  -1.1386454894691178e-02 8.7519868734291535e-16 0.0000000000000000e+00  -1.9525149343894242e-04 -3.2873726800478917e-19 0.0000000000000000e+00  1.9525149343929240e-04 -3.5785612869734203e-18 0.0000000000000000e+00  -2.4796939666763496e-02 1.0786028314933252e-15 0.0000000000000000e+00  -2.2844424732370680e-02 9.7464449878793018e-16 0.0000000000000000e+00  -2.3234927719242078e-02 6.5019816888566695e-16 0.0000000000000000e+00  -2.3625430706123541e-02 1.4195147956294905e-15 0.0000000000000000e+00  -2.4015933693004397e-02 6.7183193058866069e-16 0.0000000000000000e+00  -2.4406436679883556e-02 2.2085876744705630e-15 0.0000000000000000e+00  -2.1868167265173395e-02 1.3532529257004930e-15 0.0000000000000000e+00  -1.2496095580054632e-02 1.3844866774033870e-15 0.0000000000000000e+00  -1.2496095580090448e-02 8.2068172056940043e-16 0.0000000000000000e+00  3.1240238950348762e-03 -1.9327525860534394e-16 0.0000000000000000e+00  -3.1240238950206081e-03 5.6533237518039129e-17 0.0000000000000000e+00  3.1240238950406016e-03 -1.3974185522623862e-16 0.0000000000000000e+00  -3.1240238950145821e-03 1.8315318994916466e-16 0.0000000000000000e+00  3.1240238950462581e-03 -1.9004540828783974e-16 0.0000000000000000e+00  -3.1240238950179305e-03 1.0770692708882460e-16 0.0000000000000000e+00  3.1240238950354764e-03 -1.8875425881532457e-16 0.0000000000000000e+00  -3.1240238950189696e-03 1.1757474850632394e-16 0.0000000000000000e+00  3.1240238950390490e-03 -2.3267837483157964e-16 0.0000000000000000e+00  -3.1240238950155570e-03 1.2512471692716472e-16 0.0000000000000000e+00  3.1240238950403570e-03 -2.0093715628980983e-16 0.0000000000000000e+00  -3.1240238950146272e-03 4.2532982543200393e-17 0.0000000000000000e+00  3.1240238950395035e-03 -1.1041535233394953e-16 0.0000000000000000e+00  -3.1240238950149403e-03 2.2070130229045777e-16 0.0000000000000000e+00  3.1240238950462277e-03 -1.9850476946396938e-16 0.0000000000000000e+00  -3.1240238950013288e-03 2.6833515186430805e-16 0.0000000000000000e+00  -2.4992191160203764e-02 1.2088260855343642e-15 0.0000000000000000e+00  -2.4992191160206109e-02 1.8723566716896215e-15 0.0000000000000000e+00  -1.1747631521888506e-02 1.8929913756430843e-15 0.0000000000000000e+00  -2.1868167265164357e-02 1.4222643668060242e-15 0.0000000000000000e+00  -1.3244559638251973e-02 2.5448830647231992e-15 0.0000000000000000e+00  -1.1747631521888789e-02 1.3717968983079067e-15 0.0000000000000000e+00  -2.1868167265176756e-02 1.5955326959087615e-16 0.0000000000000000e+00  -2.1868167265161300e-02 1.4877186140559687e-15 0.0000000000000000e+00  -2.1868167265165394e-02 2.1366547483466391e-16 0.0000000000000000e+00  -1.3244559638266070e-02 1.9848790422103565e-15 0.0000000000000000e+00  -1.1747631521882096e-02 2.7487612528041373e-15 0.0000000000000000e+00  -2.1868167265166296e-02 1.5241167906664332e-15 0.0000000000000000e+00  -1.3244559638251441e-02 1.6264229427290175e-15 0.0000000000000000e+00  -2.1868167265161914e-02 1.0903452158519867e-15 0.0000000000000000e+00  -2.1868167265161966e-02 1.4999861044346684e-15 0.0000000000000000e+00  -1.5866263327163097e-02 1.9758396083023743e-15 0.0000000000000000e+00  -2.7045716220041711e-15 1.6171137404728512e-17 0.0000000000000000e+00  -5.6611013544594121e-16 3.0124867721181913e-17 0.0000000000000000e+00  -6.2480477900507814e-03 2.7143483677791659e-16 0.0000000000000000e+00  -1.7157337582202104e-02 1.4688773264725114e-15 0.0000000000000000e+00  -6.4432992834866894e-03 9.2415268299721720e-16 0.0000000000000000e+00  -1.7699481170970269e-02 3.0319072249581471e-15 0.0000000000000000e+00  -1.6303499702168500e-02 1.5194798230988730e-15 0.0000000000000000e+00  -8.1517498510837900e-03 1.1979714276097479e-15 0.0000000000000000e+00  -3.1848130438729142e-15 2.0997064014940840e-17 0.0000000000000000e+00  -2.4992191160205200e-02 1.6671864986214386e-15 0.0000000000000000e+00  -1.5119947883715423e-15 2.4560180049711605e-17 0.0000000000000000e+00  -2.4992191160205020e-02 1.1361734209171637e-15 0.0000000000000000e+00  -1.8353640383269362e-02 1.8976514898028697e-15 0.0000000000000000e+00  -1.7683434626842576e-02 3.9669277037071856e-16 0.0000000000000000e+00  -9.9089955870824246e-03 9.3376540902077594e-16 0.0000000000000000e+00  -9.3720716850753099e-03 7.2112459469176052e-16 0.0000000000000000e+00  -1.7673191159410628e-02 2.0965484007641487e-15 0.0000000000000000e+00  -1.8158388889828760e-02 1.8487249354386746e-15 0.0000000000000000e+00  -1.7669475369506020e-02 1.5201623940522310e-15 0.0000000000000000e+00  -1.7963137396389925e-02 1.4624255941749548e-15 0.0000000000000000e+00  -1.8744143370153562e-02 6.2379249334422698e-16 0.0000000000000000e+00  -6.2480477900540487e-03 9.4813600910456220e-16 0.0000000000000000e+00  -1.8744143370152302e-02 1.3479915352665219e-15 0.0000000000000000e+00  -6.2480477900543636e-03 3.5900682793040953e-16 0.0000000000000000e+00  -1.7135688106245248e-02 2.1316840014933934e-15 0.0000000000000000e+00  -7.1266795105356965e-03 1.7997302289027983e-15 0.0000000000000000e+00  -1.8744143370158364e-02 2.1845380658230235e-15 0.0000000000000000e+00  -1.4712016816900889e-02 1.1499948794261884e-15 0.0000000000000000e+00  -1.7767885902937496e-02 1.3043498728583162e-15 0.0000000000000000e+00  -1.7572634409506422e-02 1.4515784389588863e-15 0.0000000000000000e+00  -6.0219474428427656e-03 1.1555767668270862e-15 0.0000000000000000e+00  -6.3874357089283452e-03 4.4636346842704566e-16 0.0000000000000000e+00  -6.6221918765611105e-03 1.2049970683981325e-15 0.0000000000000000e+00  -1.8610767349987203e-02 2.0896241468919534e-15 0.0000000000000000e+00  -6.7582086496382945e-03 7.1891751109758735e-16 0.0000000000000000e+00  -6.8209505564623251e-03 4.9465375331085196e-16 0.0000000000000000e+00  -7.1348665250147141e-03 1.5007039229826000e-15 0.0000000000000000e+00  -7.0197731225689437e-03 4.7964481009706762e-16 0.0000000000000000e+00  -7.2186804330359169e-03 6.4292836956288406e-16 0.0000000000000000e+00  -1.9203420194633888e-02 1.8130303967518922e-15 0.0000000000000000e+00  -5.4146404009684963e-03 5.7149090395633069e-16 0.0000000000000000e+00  -8.2921208474400921e-03 7.7737709956588378e-16 0.0000000000000000e+00  -1.4870051238007647e-02 1.4894218995342170e-15 0.0000000000000000e+00  -1.8934772289383901e-02 2.9529442593480852e-15 0.0000000000000000e+00  -9.7788456297147937e-03 8.1795319209228801e-16 0.0000000000000000e+00  -9.7788456296978108e-03 6.3818505374857209e-16 0.0000000000000000e+00  -6.6068399377221575e-03 1.0069619065363594e-15 0.0000000000000000e+00  -1.6807899393522178e-02 1.5033874932665768e-15 0.0000000000000000e+00  -7.8100597375407302e-03 1.3874000814186983e-15 0.0000000000000000e+00  -7.8100597375349830e-03 1.6106329649082450e-15 0.0000000000000000e+00  -7.8100597375485173e-03 1.3501325879713413e-15 0.0000000000000000e+00  -7.8100597375479327e-03 9.5957137129410076e-16 0.0000000000000000e+00  -7.8100597375324269e-03 1.1923522936013935e-15 0.0000000000000000e+00  -7.8100597375322534e-03 1.5003883331423233e-15 0.0000000000000000e+00  -7.8100597375584564e-03 2.6082779378423103e-16 0.0000000000000000e+00  -1.6807899393543133e-02 7.3778557026516614e-16 0.0000000000000000e+00  -1.6206838260932582e-02 8.4886357161171935e-16 0.0000000000000000e+00  -1.6807899393525526e-02 1.6603203595923110e-15 0.0000000000000000e+00  -1.6807899393520537e-02 1.8133043241067674e-15 0.0000000000000000e+00  -1.6807899393516193e-02 2.3228121291272997e-15 0.0000000000000000e+00  -1.7182131422611702e-02 1.2336138210024344e-15 0.0000000000000000e+00  -1.6807899393510253e-02 3.8444637965488821e-15 0.0000000000000000e+00  -1.6807899393517234e-02 2.9517521283918789e-15 0.0000000000000000e+00  -9.3720716850817076e-03 1.2414997192527559e-15 0.0000000000000000e+00  -6.6345387599417360e-03 8.4948812577497879e-16 0.0000000000000000e+00  -9.8255051169019794e-03 1.1974944680091938e-15 0.0000000000000000e+00  -1.8744143370156115e-02 1.1083714517831554e-15 0.0000000000000000e+00  -6.2404260056817670e-03 9.8114440045335422e-16 0.0000000000000000e+00  -7.4358277084429708e-03 1.2355477587323285e-15 0.0000000000000000e+00  -7.4358277084429353e-03 1.5954931838492277e-15 0.0000000000000000e+00  -7.4358277084381344e-03 1.0266108062757056e-15 0.0000000000000000e+00  -7.8100597375400935e-03 1.1225415761477295e-15 0.0000000000000000e+00  -7.4358277084517910e-03 1.0111660189589889e-15 0.0000000000000000e+00  -7.4358277084480952e-03 1.2176503212585169e-15 0.0000000000000000e+00  -1.7182131422619252e-02 2.2420491151809643e-15 0.0000000000000000e+00  -1.7556363451686804e-02 3.3654392028567109e-15 0.0000000000000000e+00  -1.7182131422611897e-02 2.9914543961196071e-15 0.0000000000000000e+00  -1.7556363451720309e-02 1.2366668218922095e-15 0.0000000000000000e+00  -1.7182131422610762e-02 2.3364464615842822e-15 0.0000000000000000e+00  -1.7556363451698861e-02 2.8000988916607116e-15 0.0000000000000000e+00  -1.8498662966927613e-02 2.3306040675372821e-15 0.0000000000000000e+00  -9.0172096514027824e-03 1.3448759629080673e-15 0.0000000000000000e+00  -2.4406436679838455e-03 2.5543517815237796e-16 0.0000000000000000e+00  2.4406436679936753e-03 -1.2298870226528712e-16 0.0000000000000000e+00  -9.1244432619677057e-03 1.3753598939073574e-15 0.0000000000000000e+00  -1.8141143623205500e-02 1.7058079735826380e-15 0.0000000000000000e+00  -1.9208203083247985e-02 8.0973329237666677e-16 0.0000000000000000e+00  -9.7625746719272923e-05 -1.5678402478955460e-17 0.0000000000000000e+00  9.7625746719549232e-05 6.9391312430343929e-18 0.0000000000000000e+00  -3.0263981482989031e-03 2.1221175727985516e-16 0.0000000000000000e+00  3.0263981483195706e-03 -1.7976626044284558e-16 0.0000000000000000e+00  -5.1253517027801104e-03 1.2053040969683237e-15 0.0000000000000000e+00  -1.3086589174339417e-02 9.2434480787923410e-16 0.0000000000000000e+00  -5.5646675630157266e-03 7.0599162978015744e-16 0.0000000000000000e+00  -1.3101685874637515e-02 2.1722790567736934e-15 0.0000000000000000e+00  -2.6358951614199244e-03 1.0618691281763251e-16 0.0000000000000000e+00  2.8311466548804234e-03 -1.2186014780587024e-16 0.0000000000000000e+00  -2.8311466548555158e-03 2.9450480880967883e-16 0.0000000000000000e+00  -1.6742520480019070e-02 7.6289446876405774e-16 0.0000000000000000e+00  -1.6356703852340997e-02 2.4041023051034312e-15 0.0000000000000000e+00  -7.4195567506785149e-03 1.0701038138773120e-15 0.0000000000000000e+00  -2.2453921745400293e-03 1.5315333688756552e-16 0.0000000000000000e+00  2.2453921745594174e-03 -1.3607953697707411e-16 0.0000000000000000e+00  -2.2551547492204633e-02 1.7084982835914837e-15 0.0000000000000000e+00  2.0501406811163740e-03 -7.4282991469487284e-17 0.0000000000000000e+00  -2.0501406811042795e-03 1.0643766848769338e-16 0.0000000000000000e+00  -8.3190142835783739e-03 7.0836088627884231e-16 0.0000000000000000e+00  -2.2161044505328790e-02 1.4930222387449211e-15 0.0000000000000000e+00  -1.6216924498409266e-02 1.2028621110940590e-15 0.0000000000000000e+00  -2.1965793011886160e-02 1.5378383719256596e-15 0.0000000000000000e+00  -1.8548891876665990e-03 8.4024761760789517e-18 0.0000000000000000e+00  1.8548891876782497e-03 -5.9437257004412002e-17 0.0000000000000000e+00  -7.3682212845749256e-03 8.2102011213799120e-16 0.0000000000000000e+00  -1.7833563087134723e-02 1.1178302318567439e-15 0.0000000000000000e+00  -1.6596376942260042e-03 7.9615595033318001e-17 0.0000000000000000e+00  1.6596376942369080e-03 -6.1541054471290956e-17 0.0000000000000000e+00  -3.1240238950135031e-03 1.1801409094650014e-16 0.0000000000000000e+00  3.1240238950355835e-03 -1.5062513940168456e-16 0.0000000000000000e+00  -3.1240238950042748e-03 1.9060039562962922e-16 0.0000000000000000e+00  3.1240238950382008e-03 -1.3858920840361186e-16 0.0000000000000000e+00  -3.1240238950181677e-03 2.2647640341235135e-16 0.0000000000000000e+00  3.1240238950401857e-03 -1.8217631148346647e-16 0.0000000000000000e+00  -3.1240238950092660e-03 1.9499491526165058e-16 0.0000000000000000e+00  3.1240238950487722e-03 -1.9815242692167205e-16 0.0000000000000000e+00  -3.1240238950103897e-03 2.3535593976253313e-16 0.0000000000000000e+00  3.1240238950369331e-03 -9.0804755396080859e-17 0.0000000000000000e+00  -3.1240238950093310e-03 -1.0341418799284172e-16 0.0000000000000000e+00  3.1240238950356559e-03 -1.8522672432709771e-16 0.0000000000000000e+00  -3.1240238950087850e-03 2.1526761473065163e-16 0.0000000000000000e+00  3.1240238950361694e-03 -1.4820765653943403e-16 0.0000000000000000e+00  -3.1240238950164664e-03 2.0416807663351587e-16 0.0000000000000000e+00  3.1240238950340036e-03 -1.3299111664310725e-16 0.0000000000000000e+00  -3.1240238950057172e-03 7.6776186578946328e-17 0.0000000000000000e+00  3.1240238950370224e-03 -2.6661191766893704e-16 0.0000000000000000e+00  -3.1240238950181977e-03 1.7168435628270631e-16 0.0000000000000000e+00  3.1240238950309817e-03 -1.9417656939513595e-16 0.0000000000000000e+00  -3.124