<?xml version="1.0"?>
<VTKFile type="UnstructuredGrid"  version="0.1"  >
<UnstructuredGrid>
<Piece  NumberOfPoints="6614" NumberOfCells="12519">
<Points>
<DataArray  type="Float64"  NumberOfComponents="3"  format="ascii">0 0 0  6.5 -0.125 0  12 -0.125 0  12 0.125 0  6.5 0.125 0  0 1 0  12 0.875 0  6.5 0.875 0  -2.5 1 0  -2.5 0 0  3.25 0.0625 0  3.25 0.9375 0  3.25 -0.0625 0  9.25 0.125 0  9.25 0.875 0  9.25 -0.125 0  1.625 0.03125 0  1.625 0.96875 0  1.625 -0.03125 0  4.875 0.90625 0  4.875 0.09375 0  4.875 -0.09375 0  7.875 0.125 0  7.875 0.875 0  7.875 -0.125 0  10.625 0.875 0  10.625 0.125 0  10.625 -0.125 0  -1.25 1 0  -1.25 0 0  0.8125 0.015625 0  0.8125 0.984375 0  0.8125 -0.015625 0  2.4375 0.953125 0  2.4375 0.046875 0  2.4375 -0.046875 0  4.0625 0.078125 0  4.0625 0.921875 0  4.0625 -0.078125 0  5.6875 0.109375 0  5.6875 0.890625 0  5.6875 -0.109375 0  -1.875 0 0  -1.875 1 0  -0.625 0 0  -0.625 1 0  8.5625 0.875 0  8.5625 0.125 0  8.5625 -0.125 0  7.1875 0.125 0  7.1875 0.875 0  7.1875 -0.125 0  11.3125 0.125 0  11.3125 0.875 0  11.3125 -0.125 0  9.9375 0.125 0  9.9375 0.875 0  9.9375 -0.125 0  0 0.5 0  1.209585336538462 0.5 0  2.022385817307693 0.5 0  2.835186298076923 0.5 0  3.647986778846154 0.5 0  -0.9375 0.5 0  -1.5625 0.5 0  -2.5 0.5 0  4.460787259615385 0.5 0  5.28125 0.1015625 0  5.28125 0.8984375 0  5.28125 -0.1015625 0  6.09375 0.8828125 0  6.09375 0.1171875 0  6.09375 -0.1171875 0  8.90625 0.5 0  7.53125 0.5 0  8.21875 0.5 0  6.84375 0.5 0  10.28125 0.5 0  10.96875 0.5 0  12 0.5 0  9.59375 0.5 0  0.5506310096153846 0.5 0  -0.46875 0.4453125 0  -2.03125 0.4453125 0  5.070387620192307 0.5 0  5.883188100961538 0.5 0  4.46875 0.0859375 0  4.46875 -0.0859375 0  3.65625 -0.0703125 0  3.65625 0.0703125 0  2.84375 0.0546875 0  2.84375 -0.0546875 0  2.03125 -0.0390625 0  2.03125 0.0390625 0  1.21875 0.0234375 0  1.21875 -0.0234375 0  4.054387019230769 0.4847310450995098 0  3.241586538461538 0.4699247074852732 0  1.615985576923077 0.4417102219320143 0  5.476787860576923 0.53993893765092 0  2.428786057692307 0.4556005042418 0  0.40625 0.0078125 0  0.40625 -0.0078125 0  0.40625 0.9921875 0  4.46875 0.9140625 0  3.65625 0.9296875 0  2.84375 0.9453125 0  2.03125 0.9609375 0  1.21875 0.9765625 0  11.65625 0.875 0  11.484375 0.5 0  6.467329545454546 0.5 0  9.59375 -0.125 0  9.59375 0.125 0  10.28125 -0.125 0  10.28125 0.125 0  10.96875 -0.125 0  10.96875 0.125 0  6.84375 -0.125 0  6.84375 0.125 0  7.53125 -0.125 0  7.53125 0.125 0  8.21875 -0.125 0  8.21875 0.125 0  8.90625 -0.125 0  8.90625 0.125 0  11.65625 -0.125 0  11.65625 0.125 0  -0.3125 1 0  -2.1875 1 0  9.25 0.4700520833333333 0  9.59375 0.875 0  9.9375 0.5299479166666666 0  10.625 0.4700520833333333 0  10.96875 0.875 0  10.28125 0.875 0  6.84375 0.875 0  7.1875 0.5299479166666666 0  7.875 0.4700520833333333 0  8.21875 0.875 0  8.5625 0.5299479166666666 0  7.53125 0.875 0  8.90625 0.875 0  0.8801081730769231 0.63484883039911 0  -2.1875 0 0  -0.3125 0 0  0 0.25 0  0.2753155048076923 0.6865079365079365 0  1.011042668269231 0.2578125 0  1.446827777824054 0.7082004557951647 0  -1.25 0.65234375 0  -1.284375 0.326171875 0  -1.5625 0 0  -1.5625 1 0  -0.9375 0 0  -0.9375 1 0  1.823692908653846 0.7343749999999999 0  2.250687166802934 0.7075583934794667 0  4.765587439903847 0.3964836665810265 0  0.2753155048076923 0.375 0  3.054829110674799 0.707148526758953 0  2.636343149038462 0.7265625000000001 0  3.859250973615127 0.7069998487229827 0  3.448993389423077 0.7187500000000001 0  -0.78125 0.75 0  -0.78125 0.25 0  0 0.75 0  -2.5 0.25 0  -2.240776699029126 0.6856416868932038 0  -1.775 0.28515625 0  -1.71875 0.75 0  6.175258823208043 0.5886645441611957 0  4.261643629807693 0.7109374999999998 0  4.667893629807693 0.7031250000000002 0  1.824167367109634 0.2409531602990362 0  2.636686615214766 0.2555772588321514 0  1.38325552388875 0.2649704395311445 0  -0.46875 0.7446632922535211 0  3.449201796915416 0.2704128103983777 0  2.203202991433102 0.2729232708226779 0  4.261712450328808 0.2854838329019752 0  3.023283383806745 0.2808786583609286 0  3.843540099517909 0.288837436732593 0  0.6331235396611878 0.7683768130429148 0  0.6054339511832376 0.2166532884716425 0  6.256771799991964 0.3317884692185022 0  -0.2486470253814554 0.5949878961267605 0  -1.984670937186905 0.7576275392581842 0  11.2265625 0.3912760416666667 0  11.7421875 0.3912760416666667 0  -1.036405127827206 0.2643561701079966 0  10.78053977272727 0.6725260416666666 0  8.734375 0.3125 0  8.390625 0.3125 0  7.359375 0.3125 0  7.015625 0.3125 0  10.109375 0.3125 0  9.765625 0.3125 0  6.671875 0.3125 0  6.655539772727273 0.6725260416666669 0  11.78555345556989 0.6484760842723984 0  9.405539772727273 0.6725260416666666 0  9.094460227272727 0.6725260416666666 0  10.46946022727273 0.6725260416666666 0  11.140625 0.6875 0  8.030539772727273 0.6725260416666666 0  7.719460227272728 0.6725260416666666 0  -2.277018229166667 0.375 0  -0.2686215753424658 0.2654644691780822 0  0.7924173055676504 0.3931430043056919 0  -2.5 0.75 0  -1.525008560462654 0.2496950333675564 0  7.703125 0.2975260416666667 0  8.046875 0.2975260416666666 0  10.453125 0.2975260416666667 0  10.81190567787247 0.3125 0  9.078125 0.2975260416666667 0  9.421875 0.2975260416666666 0  10.12440567787247 0.6875 0  9.765625 0.7024739583333333 0  7.374405677872475 0.6875 0  7.015625 0.7024739583333333 0  8.749405677872474 0.6875 0  8.390625 0.7024739583333333 0  1.115551444307063 0.7401777158454262 0  5.28922999544003 0.360801083570939 0  5.078125 0.09765625 0  5.078125 -0.09765625 0  5.664767392260801 0.3650917682044265 0  -1.479229041916168 0.7258724738023952 0  -1.029665898617512 0.7685681883640553 0  0.203125 0.00390625 0  0.203125 -0.00390625 0  6.296875 0.12109375 0  6.296875 -0.12109375 0  -2.00322265625 0.205078125 0  -0.6971783980582524 0.5236271237864077 0  -0.546875 0.22265625 0  -1.801855111236272 0.5242311804773303 0  5.484375 0.10546875 0  5.890625 -0.11328125 0  5.890625 0.11328125 0  4.903633313301282 0.6699100680171115 0  5.260369462255295 0.6544725809557483 0  4.972693810096154 0.296875 0  4.671875 0.08984375 0  4.671875 -0.08984375 0  5.078125 0.90234375 0  4.265625 -0.08203125 0  4.265625 0.08203125 0  6.03259461594712 0.3328645427790781 0  5.890625 0.88671875 0  5.692656615207549 0.6488796598294736 0  6.296875 0.87890625 0  3.859375 0.07421875 0  3.859375 -0.07421875 0  4.561082497482947 0.2948209397629855 0  2.036725213111611 0.7135654082038703 0  3.453125 0.06640625 0  3.453125 -0.06640625 0  11.828125 0.125 0  11.828125 -0.125 0  11.484375 0.125 0  11.484375 -0.125 0  9.078125 0.125 0  9.078125 -0.125 0  8.734375 0.125 0  8.734375 -0.125 0  8.390625 0.125 0  8.390625 -0.125 0  8.046875 0.125 0  8.046875 -0.125 0  7.703125 0.125 0  7.703125 -0.125 0  7.359375 0.125 0  7.359375 -0.125 0  7.015625 0.125 0  7.015625 -0.125 0  6.671875 0.125 0  6.671875 -0.125 0  11.140625 0.125 0  11.140625 -0.125 0  10.796875 0.125 0  10.796875 -0.125 0  10.453125 0.125 0  10.453125 -0.125 0  10.109375 0.125 0  10.109375 -0.125 0  9.765625 0.125 0  9.765625 -0.125 0  9.421875 0.125 0  9.421875 -0.125 0  3.046875 0.05859375 0  3.046875 -0.05859375 0  2.846431093850899 0.7350694856199397 0  2.640625 -0.05078125 0  2.640625 0.05078125 0  0.203125 0.99609375 0  6.362699038303388 0.6807243972366781 0  2.234375 0.04296875 0  2.234375 -0.04296875 0  11.581701212888 0.6822801732596659 0  11.35203598484848 0.6662326388888888 0  1.828125 0.03515625 0  1.828125 -0.03515625 0  5.984553033425814 0.6914815580202875 0  1.822525515412832 0.4475696738977717 0  1.41733060903937 0.5025442175645189 0  1.588893519464248 0.2357861358511414 0  3.654445727495178 0.7241715610932831 0  -0.2708370651139332 0.7990289667308481 0  1.421875 0.02734375 0  1.421875 -0.02734375 0  5.484375 0.89453125 0  2.633855454650776 0.460690271159621 0  2.40795634504651 0.2507007772874862 0  2.225403489025307 0.476130253335854 0  1.015625 -0.01953125 0  1.015625 0.01953125 0  3.227321013248274 0.265830895248878 0  3.445567521085816 0.4744107463092357 0  3.038321171612397 0.4840806912614364 0  0.609375 0.01171875 0  0.609375 -0.01171875 0  4.257720382725849 0.4888191036475296 0  4.047058936483319 0.2812008669921838 0  3.851174586896061 0.4920378211671812 0  0.609375 0.98828125 0  4.464694218296445 0.7031618514150944 0  4.671875 0.91015625 0  4.265625 0.91796875 0  3.453125 0.93359375 0  3.859375 0.92578125 0  2.640625 0.94921875 0  3.046875 0.94140625 0  2.234375 0.95703125 0  1.828125 0.96484375 0  1.421875 0.97265625 0  1.015625 0.98046875 0  5.484375 -0.10546875 0  4.060661963989729 0.6870321141431521 0  -2.34375 0 0  -2.34375 1 0  1.003521337202078 0.4664537109579014 0  3.646922073215719 0.2678295141073984 0  3.253141618048695 0.6711470624742265 0  0.3013894287350291 0.1773590807784885 0  -1.124347644480009 0.4398459561477482 0  2.831246172847781 0.248957659490205 0  2.446473427278441 0.6570274073729461 0  -2.198800970885971 0.1954869700666445 0  2.01591648071966 0.2304840455985115 0  0.827600060761903 0.2057214409193794 0  1.640609275971101 0.6442729681322822 0  -0.15625 0 0  6.483664772727272 0.3124999999999999 0  5.477125710212377 0.3518294601818938 0  11.41161533959385 0.3125 0  12 0.3125 0  11.04150966040615 0.3125 0  12 0.6875 0  1.198054295914707 0.2143210783083181 0  -1.40625 0 0  0.9109798103993655 0.8221220157670066 0  5.845812869360681 0.3162425406240469 0  0.4667569911039429 0.6726473502422988 0  0.4593425712678239 0.3353704711440587 0  8.211153274166278 0.6806358075271245 0  9.586153274166278 0.6806358075271245 0  6.835007346992159 0.6944141097550816 0  6.663707386363637 0.4925130208333334 0  10.96058238636364 0.680013020833333 0  -1.40625 1 0  -1.320649221029402 0.826171875 0  5.082724050007036 0.6788909168133963 0  -0.1275597151206816 0.375 0  0.7018834652202378 0.6003751687871122 0  -1.71875 0 0  5.523196914803937 0.7163232589905226 0  0.3602612407862962 0.5307539682539683 0  0.1786479052710517 0.5327459553507268 0  1.289006631999016 0.8051714473419221 0  -1.328125 0.156663781811377
[...]
<PointData  Vectors="f_229"> 
<DataArray  type="Float64"  Name="f_229"  NumberOfComponents="3" format="ascii">-7.8324630535088759e-18 1.4444435352387725e-17 0.0000000000000000e+00  2.0318650437293109e-01 -2.5000000000001440e-03 0.0000000000000000e+00  2.0318650437292871e-01 -2.5000000000001622e-03 0.0000000000000000e+00  1.9693845658289308e-01 -2.4999999999998257e-03 0.0000000000000000e+00  1.9693845658289058e-01 -2.4999999999994250e-03 0.0000000000000000e+00  -2.4992191160203105e-02 1.2065190332318254e-15 0.0000000000000000e+00  1.7819431321275589e-01 -2.4999999999985928e-03 0.0000000000000000e+00  1.7819431321273152e-01 -2.4999999999987081e-03 0.0000000000000000e+00  -2.4992191160206293e-02 1.0582544907658942e-15 0.0000000000000000e+00  -3.9241056861938066e-15 -2.9423431788678585e-17 0.0000000000000000e+00  9.8469228291444930e-02 2.3750000000000236e-02 0.0000000000000000e+00  7.6601061026267042e-02 -2.6249999999999170e-02 0.0000000000000000e+00  1.0159325218647122e-01 -2.6250000000000228e-02 0.0000000000000000e+00  1.9693845658288606e-01 -2.4999999999998331e-03 0.0000000000000000e+00  1.7819431321273324e-01 -2.4999999999987918e-03 0.0000000000000000e+00  2.0318650437294428e-01 -2.5000000000002394e-03 0.0000000000000000e+00  4.9234614145723492e-02 1.8125000000000131e-02 0.0000000000000000e+00  2.5804434933032524e-02 -1.9374999999998109e-02 0.0000000000000000e+00  5.0796626093235681e-02 -1.9375000000000090e-02 0.0000000000000000e+00  1.2739768711950217e-01 -2.0624999999998461e-02 0.0000000000000000e+00  1.4770384243716958e-01 1.6875000000000431e-02 0.0000000000000000e+00  1.5238987827970588e-01 -2.0625000000000379e-02 0.0000000000000000e+00  1.9693845658288972e-01 -2.4999999999997680e-03 0.0000000000000000e+00  1.7819431321274024e-01 -2.4999999999983451e-03 0.0000000000000000e+00  2.0318650437293417e-01 -2.5000000000001158e-03 0.0000000000000000e+00  1.7819431321274729e-01 -2.4999999999986227e-03 0.0000000000000000e+00  1.9693845658289313e-01 -2.4999999999997888e-03 0.0000000000000000e+00  2.0318650437294650e-01 -2.5000000000001601e-03 0.0000000000000000e+00  -2.4992191160204864e-02 1.6001234974260477e-15 0.0000000000000000e+00  -1.6386587278797205e-15 1.4366719546629970e-17 0.0000000000000000e+00  2.4617307072861416e-02 1.0625000000000039e-02 0.0000000000000000e+00  4.0612188641498092e-04 -1.1249999999998062e-02 0.0000000000000000e+00  2.5398313046616858e-02 -1.1250000000000038e-02 0.0000000000000000e+00  5.1202747979650173e-02 -2.4374999999998516e-02 0.0000000000000000e+00  7.3851921218584360e-02 2.2500000000000169e-02 0.0000000000000000e+00  7.6194939139852202e-02 -2.4375000000000157e-02 0.0000000000000000e+00  1.2308653536430958e-01 2.1875000000000332e-02 0.0000000000000000e+00  1.0199937407288484e-01 -2.4999999999998745e-02 0.0000000000000000e+00  1.2699156523309088e-01 -2.5000000000000341e-02 0.0000000000000000e+00  1.7232114951002914e-01 8.7500000000004935e-03 0.0000000000000000e+00  1.5279600016612363e-01 -1.3124999999999200e-02 0.0000000000000000e+00  1.7778819132632609e-01 -1.3125000000000475e-02 0.0000000000000000e+00  -3.8420681440058144e-15 -3.6880935975791363e-17 0.0000000000000000e+00  -2.4992191160206633e-02 1.6278940612558397e-15 0.0000000000000000e+00  -1.0122691174432335e-15 1.0153233487360890e-17 0.0000000000000000e+00  -2.4992191160204288e-02 1.2148091855730517e-15 0.0000000000000000e+00  1.7819431321273488e-01 -2.4999999999986556e-03 0.0000000000000000e+00  1.9693845658288597e-01 -2.4999999999997407e-03 0.0000000000000000e+00  2.0318650437293870e-01 -2.5000000000001271e-03 0.0000000000000000e+00  1.9693845658288917e-01 -2.4999999999998808e-03 0.0000000000000000e+00  1.7819431321273399e-01 -2.4999999999983278e-03 0.0000000000000000e+00  2.0318650437293403e-01 -2.5000000000002282e-03 0.0000000000000000e+00  1.9693845658289558e-01 -2.4999999999997871e-03 0.0000000000000000e+00  1.7819431321273993e-01 -2.4999999999985333e-03 0.0000000000000000e+00  2.0318650437294561e-01 -2.5000000000001904e-03 0.0000000000000000e+00  1.9693845658289375e-01 -2.4999999999997329e-03 0.0000000000000000e+00  1.7819431321274454e-01 -2.4999999999990134e-03 0.0000000000000000e+00  2.0318650437294122e-01 -2.5000000000001145e-03 0.0000000000000000e+00  -1.2496095580101563e-02 6.2405777048914911e-16 0.0000000000000000e+00  2.4733541755795091e-02 -4.6673334031762390e-04 0.0000000000000000e+00  4.9750600059493090e-02 -7.7815177193222825e-04 0.0000000000000000e+00  7.4767655101809147e-02 -1.0896974557198468e-03 0.0000000000000000e+00  9.9784649390346938e-02 -1.4030694641290217e-03 0.0000000000000000e+00  -1.2496095580105221e-02 1.0781856354529315e-15 0.0000000000000000e+00  -1.2496095580108319e-02 1.7903141351773499e-15 0.0000000000000000e+00  -1.2496095580104477e-02 7.4700442273955418e-16 0.0000000000000000e+00  1.2480038218305077e-01 -1.7143705671448797e-03 0.0000000000000000e+00  1.6001249597359624e-01 1.3203125000000412e-02 0.0000000000000000e+00  1.4009684364280980e-01 -1.7265624999998952e-02 0.0000000000000000e+00  1.6508903480301423e-01 -1.7265625000000458e-02 0.0000000000000000e+00  1.6549515668943360e-01 -8.2031249999984408e-03 0.0000000000000000e+00  1.8462980304645946e-01 3.5156250000005357e-03 0.0000000000000000e+00  1.9048734784963231e-01 -8.2031250000005086e-03 0.0000000000000000e+00  1.8756618640122247e-01 -2.4999974735833183e-03 0.0000000000000000e+00  1.8750382275076927e-01 -2.4992044085952706e-03 0.0000000000000000e+00  1.8756285868466493e-01 -2.4999551195520817e-03 0.0000000000000000e+00  1.8646474914611558e-01 -2.4860206124508268e-03 0.0000000000000000e+00  1.8756638426798497e-01 -2.4999999919798782e-03 0.0000000000000000e+00  1.8756638486241506e-01 -2.4999999995472576e-03 0.0000000000000000e+00  1.8756638489782995e-01 -2.4999999999990160e-03 0.0000000000000000e+00  1.8756637370958151e-01 -2.4999998575955915e-03 0.0000000000000000e+00  4.4516898969721589e-03 -2.1464682039815491e-04 0.0000000000000000e+00  -1.1129335126029941e-02 8.3972156865877561e-16 0.0000000000000000e+00  -1.1129335126036897e-02 2.3492721442670492e-15 0.0000000000000000e+00  1.4355006368856621e-01 -1.9487995937047301e-03 0.0000000000000000e+00  1.6821300953892593e-01 -2.2583193625919833e-03 0.0000000000000000e+00  1.3539518890073646e-01 1.9765625000000283e-02 0.0000000000000000e+00  1.3969072175640071e-01 -2.3203125000000300e-02 0.0000000000000000e+00  1.1429240870977894e-01 -2.6015625000000337e-02 0.0000000000000000e+00  1.1077788182787761e-01 2.3203125000000328e-02 0.0000000000000000e+00  8.6160574755012126e-02 2.3515625000000224e-02 0.0000000000000000e+00  8.8894095663160658e-02 -2.5703125000000212e-02 0.0000000000000000e+00  6.3495782616543914e-02 -2.2265625000000129e-02 0.0000000000000000e+00  6.1543267682153742e-02 2.0703125000000145e-02 0.0000000000000000e+00  3.6925960609291812e-02 1.4765625000000060e-02 0.0000000000000000e+00  3.8097469569924831e-02 -1.5703125000000071e-02 0.0000000000000000e+00  1.1267454847019134e-01 -7.1576724198521503e-04 0.0000000000000000e+00  8.8027819967351248e-02 4.6114638271446039e-04 0.0000000000000000e+00  3.8698860246657835e-02 1.6832050179265753e-03 0.0000000000000000e+00  1.5500406109442974e-01 -3.4285686658258019e-03 0.0000000000000000e+00  6.3368769340433492e-02 1.3442586321660039e-03 0.0000000000000000e+00  1.2308653536430137e-02 5.7031250000000172e-03 0.0000000000000000e+00  1.2699156523308516e-02 -6.0156250000000201e-03 0.0000000000000000e+00  -1.2293034636894356e-02 -6.0156249999989090e-03 0.0000000000000000e+00  1.1469853059619087e-01 -2.3203124999999446e-02 0.0000000000000000e+00  8.9300217549580868e-02 -2.6015624999999407e-02 0.0000000000000000e+00  6.3901904502960932e-02 -2.5703124999998793e-02 0.0000000000000000e+00  3.8503591456341350e-02 -2.2265624999999404e-02 0.0000000000000000e+00  1.3105278409723647e-02 -1.5703124999997944e-02 0.0000000000000000e+00  1.7819431321273030e-01 -2.4999999999985529e-03 0.0000000000000000e+00  1.8756638489380981e-01 -2.4999999999469821e-03 0.0000000000000000e+00  1.8275429235785001e-01 -2.4398121749191781e-03 0.0000000000000000e+00  2.0318650437293212e-01 -2.5000000000001822e-03 0.0000000000000000e+00  1.9693845658287965e-01 -2.4999999999999411e-03 0.0000000000000000e+00  2.0318650437294125e-01 -2.5000000000001258e-03 0.0000000000000000e+00  1.9693845658288700e-01 -2.4999999999998179e-03 0.0000000000000000e+00  2.0318650437294267e-01 -2.5000000000001787e-03 0.0000000000000000e+00  1.9693845658288162e-01 -2.4999999999998877e-03 0.0000000000000000e+00  2.0318650437293365e-01 -2.5000000000001822e-03 0.0000000000000000e+00  1.9693845658287987e-01 -2.4999999999998504e-03 0.0000000000000000e+00  2.0318650437293861e-01 -2.5000000000002303e-03 0.0000000000000000e+00  1.9693845658288447e-01 -2.4999999999998769e-03 0.0000000000000000e+00  2.0318650437293756e-01 -2.5000000000001956e-03 0.0000000000000000e+00  1.9693845658288522e-01 -2.4999999999999571e-03 0.0000000000000000e+00  2.0318650437293911e-01 -2.5000000000000981e-03 0.0000000000000000e+00  1.9693845658288506e-01 -2.4999999999997780e-03 0.0000000000000000e+00  2.0318650437294464e-01 -2.5000000000002034e-03 0.0000000000000000e+00  1.9693845658289930e-01 -2.4999999999997051e-03 0.0000000000000000e+00  -2.4992191160203747e-02 1.2088257606197143e-15 0.0000000000000000e+00  -2.4992191160206109e-02 1.8723566716896215e-15 0.0000000000000000e+00  1.8831480220032212e-01 -2.4999994048885495e-03 0.0000000000000000e+00  1.7819431321273704e-01 -2.4999999999989245e-03 0.0000000000000000e+00  1.8681791821141527e-01 -2.4999999665463075e-03 0.0000000000000000e+00  1.8831484880775887e-01 -2.4999999981116777e-03 0.0000000000000000e+00  1.7819431321272594e-01 -2.4999999999997338e-03 0.0000000000000000e+00  1.7819431321274035e-01 -2.4999999999984713e-03 0.0000000000000000e+00  1.7819431321273738e-01 -2.4999999999996184e-03 0.0000000000000000e+00  1.8655677012607616e-01 -2.4971099643544673e-03 0.0000000000000000e+00  1.8830011469271024e-01 -2.4998111515704045e-03 0.0000000000000000e+00  1.7819431321273529e-01 -2.4999999999987216e-03 0.0000000000000000e+00  1.8681709242393382e-01 -2.4999894607293043e-03 0.0000000000000000e+00  1.7819431321273868e-01 -2.4999999999987550e-03 0.0000000000000000e+00  1.7819431321273962e-01 -2.4999999999983373e-03 0.0000000000000000e+00  1.1222448082950918e-02 -3.5705489189420750e-03 0.0000000000000000e+00  -2.7045716220041711e-15 1.6171137404728512e-17 0.0000000000000000e+00  -5.6617664265727034e-16 3.0124890045349701e-17 0.0000000000000000e+00  -6.2480477900507900e-03 2.7875396135083301e-16 0.0000000000000000e+00  -8.6834448433221849e-03 -1.5968108370423436e-03 0.0000000000000000e+00  2.4675424416301005e-02 6.1776950867553360e-03 0.0000000000000000e+00  2.6832204043965219e-02 -8.1341129606539529e-03 0.0000000000000000e+00  -1.6303499702168500e-02 1.5194798230988730e-15 0.0000000000000000e+00  -8.1517498510837900e-03 1.1979714276097479e-15 0.0000000000000000e+00  -3.1848130438729142e-15 2.0997064014940840e-17 0.0000000000000000e+00  -2.4992191160205200e-02 1.6671864986214386e-15 0.0000000000000000e+00  -1.5119947883715423e-15 2.4560180049711330e-17 0.0000000000000000e+00  -2.4992191160205020e-02 1.1361734209171643e-15 0.0000000000000000e+00  3.7777517528001001e-02 -1.0822191287187814e-02 0.0000000000000000e+00  5.1590112296385389e-02 -1.1097591472498084e-02 0.0000000000000000e+00  1.3676618620450787e-01 3.0882495497089987e-03 0.0000000000000000e+00  -8.9817894625106092e-04 8.9141025403667649e-04 0.0000000000000000e+00  7.6350908966670572e-02 -1.2814523792311379e-02 0.0000000000000000e+00  6.2985202098843091e-02 -1.3113926576393296e-02 0.0000000000000000e+00  1.0111369891854526e-01 -1.3156608790926519e-02 0.0000000000000000e+00  8.8192866116656748e-02 -1.3834194896320862e-02 0.0000000000000000e+00  -1.8744143370153562e-02 6.2379249334512963e-16 0.0000000000000000e+00  -6.2480477900540487e-03 9.4813600910472668e-16 0.0000000000000000e+00  -1.8744143370152323e-02 1.2970847072556997e-15 0.0000000000000000e+00  -6.2480477900543653e-03 3.5900682793040953e-16 0.0000000000000000e+00  -1.7135688106245248e-02 2.1316840014933934e-15 0.0000000000000000e+00  -7.1266795105356965e-03 1.7997302289027983e-15 0.0000000000000000e+00  -1.8744143370158364e-02 2.1845380658230235e-15 0.0000000000000000e+00  1.7422500142603248e-01 -3.4594838800461481e-03 0.0000000000000000e+00  1.1340011424738315e-01 -1.2976833709215643e-02 0.0000000000000000e+00  1.2609755425866562e-01 -1.1761208094298368e-02 0.0000000000000000e+00  5.0123813757715234e-02 1.0490679450464190e-02 0.0000000000000000e+00  7.4766726857511595e-02 1.2045853049426508e-02 0.0000000000000000e+00  3.5952812911922302e-02 7.7272579488504309e-03 0.0000000000000000e+00  -1.8610767349987286e-02 2.0896241220363520e-15 0.0000000000000000e+00  9.9404210326017400e-02 1.1802549155340434e-02 0.0000000000000000e+00  6.0991088455031046e-02 1.0215719434187863e-02 0.0000000000000000e+00  1.2403525956305271e-01 9.8904226780470728e-03 0.0000000000000000e+00  8.6033386860714434e-02 1.1119277122780368e-02 0.0000000000000000e+00  1.1108093876988220e-01 1.0443346244120450e-02 0.0000000000000000e+00  2.8338992604364280e-04 -5.0242770045388291e-03 0.0000000000000000e+00  1.3219916219243059e-02 4.6129548831679613e-03 0.0000000000000000e+00  1.8297344477096678e-01 -7.7235769220917409e-04 0.0000000000000000e+00  -1.4870051238007644e-02 1.4894238158985072e-15 0.0000000000000000e+00  -1.8934772289383901e-02 2.9529442593480852e-15 0.0000000000000000e+00  1.9028363483742938e-01 -2.4999999998622765e-03 0.0000000000000000e+00  1.9028363484709657e-01 -2.4999999999853841e-03 0.0000000000000000e+00  -6.6068399377221575e-03 1.0069619065363594e-15 0.0000000000000000e+00  1.8325458102610456e-01 -2.4999999992567877e-03 0.0000000000000000e+00  1.9225213244783235e-01 -2.4999963262212405e-03 0.0000000000000000e+00  1.9225120431168430e-01 -2.4999844387223317e-03 0.0000000000000000e+00  1.9216153997945179e-01 -2.4984187454555927e-03 0.0000000000000000e+00  1.9186885944700346e-01 -2.4876463251483172e-03 0.0000000000000000e+00  1.9225241982563360e-01 -2.4999999883560165e-03 0.0000000000000000e+00  1.9225241688096631e-01 -2.4999999508760430e-03 0.0000000000000000e+00  1.9060663957982074e-01 -2.3501476886006968e-03 0.0000000000000000e+00  1.8140143304653331e-01 -2.6195989641659917e-03 0.0000000000000000e+00  1.8385564221618567e-01 -2.4999999999892413e-03 0.0000000000000000e+00  1.8325456269152882e-01 -2.4999997659156704e-03 0.0000000000000000e+00  1.8325451348113989e-01 -2.4999991397790500e-03 0.0000000000000000e+00  1.8325458086982702e-01 -2.4999999972669502e-03 0.0000000000000000e+00  1.8288034904310238e-01 -2.4999999998438966e-03 0.0000000000000000e+00  1.8324878952756016e-01 -2.4999278538597059e-03 0.0000000000000000e+00  1.8323329786915099e-01 -2.4997499231163203e-03 0.0000000000000000e+00  -9.3720716850817058e-03 1.2414997192527559e-15 0.0000000000000000e+00  -6.6345387599417507e-03 8.4948595219652320e-16 0.0000000000000000e+00  1.4564182837395889e-02 2.0242618018430827e-03 0.0000000000000000e+00  -1.8744143370156115e-02 1.1083714517831554e-15 0.0000000000000000e+00  -6.2404260056817670e-03 9.8114440045335422e-16 0.0000000000000000e+00  1.9260647681657284e-01 -2.4997190371795772e-03 0.0000000000000000e+00  1.9262187414855383e-01 -2.4999378145915572e-03 0.0000000000000000e+00  1.9262665256646966e-01 -2.4999999974152430e-03 0.0000000000000000e+00  1.9225242069224499e-01 -2.4999999993864531e-03 0.0000000000000000e+00  1.9262658876214089e-01 -2.4999991850748826e-03 0.0000000000000000e+00  1.9262663760989399e-01 -2.4999998070370276e-03 0.0000000000000000e+00  1.8288034819675170e-01 -2.4999999890700916e-03 0.0000000000000000e+00  1.8250611342587442e-01 -2.4999999541731907e-03 0.0000000000000000e+00  1.8279520995909895e-01 -2.4992903463865301e-03 0.0000000000000000e+00  1.8214875480465986e-01 -2.5028519400478364e-03 0.0000000000000000e+00  1.8288007844383378e-01 -2.4999965596667053e-03 0.0000000000000000e+00  1.8250498209397642e-01 -2.4999856328632563e-03 0.0000000000000000e+00  1.5836719956153596e-02 -7.5078541420826672e-03 0.0000000000000000e+00  1.5375007343989774e-01 3.2199300686594563e-03 0.0000000000000000e+00  1.5385816920537970e-01 1.5136718750000520e-02 0.0000000000000000e+00  1.5873945654135937e-01 -1.9042968750000420e-02 0.0000000000000000e+00  1.6510008750782001e-01 1.6377031868480820e-03 0.0000000000000000e+00  -1.8141143623205500e-02 1.7058079735826380e-15 0.0000000000000000e+00  -1.9208203083247985e-02 8.0973329237666637e-16 0.0000000000000000e+00  6.1543267682153497e-03 2.9492187499999922e-03 0.0000000000000000e+00  6.3495782616541227e-03 -3.1054687500000006e-03 0.0000000000000000e+00  1.9078412981467174e-01 6.0546875000057115e-04 0.0000000000000000e+00  1.9683692611129111e-01 -5.4492187500005430e-03 0.0000000000000000e+00  -5.1253517027801104e-03 1.2053040969683237e-15 0.0000000000000000e+00  -1.3086589174339417e-02 9.2434480787221857e-16 0.0000000000000000e+00  -5.5646675630157266e-03 7.0599162963397383e-16 0.0000000000000000e+00  -1.3101685874637515e-02 2.1722790567736934e-15 0.0000000000000000e+00  1.6616682274181294e-01 1.1074218750000397e-02 0.0000000000000000e+00  1.8413776958798450e-01 -1.0761718750000466e-02 0.0000000000000000e+00  1.7847547627824920e-01 6.2304687500006279e-03 0.0000000000000000e+00  1.3417964303210234e-01 -9.5939606198137736e-03 0.0000000000000000e+00  1.4552637617529041e-01 -7.9506005823254053e-03 0.0000000000000000e+00  1.4562722156074528e-01 7.0640759784243931e-03 0.0000000000000000e+00  1.4154951566895513e-01 1.8417968750000360e-02 0.0000000000000000e+00  1.4604030001805407e-01 -2.2011718750000370e-02 0.0000000000000000e+00  1.3374726538115983e-01 -1.9042968749998754e-02 0.0000000000000000e+00  1.3334114349474346e-01 -2.4199218750000296e-02 0.0000000000000000e+00  1.2924086213252134e-01 2.0917968750000324e-02 0.0000000000000000e+00  1.7683166833105934e-01 5.5522921591434290e-04 0.0000000000000000e+00  1.5914557842777377e-01 -1.0761718749998702e-02 0.0000000000000000e+00  1.5885602088563908e-01 -6.2880818036603224e-03 0.0000000000000000e+00  1.7184473495108574e-01 -5.4492187499988074e-03 0.0000000000000000e+00  1.1693220859609016e-01 2.2636718750000191e-02 0.0000000000000000e+00  1.2064198697143455e-01 -2.5605468750000259e-02 0.0000000000000000e+00  1.3301518080801830e-01 8.6065522111598170e-03 0.0000000000000000e+00  4.4854482615580657e-02 -1.0702403359284983e-02 0.0000000000000000e+00  1.0462355505966157e-01 2.3574218750000292e-02 0.0000000000000000e+00  1.0794283044812487e-01 -2.6230468750000256e-02 0.0000000000000000e+00  1.9693845658289111e-01 -2.4999999999998556e-03 0.0000000000000000e+00  2.0318650437293373e-01 -2.5000000000001224e-03 0.0000000000000000e+00  1.9693845658289544e-01 -2.4999999999997793e-03 0.0000000000000000e+00  2.0318650437293501e-01 -2.5000000000001358e-03 0.0000000000000000e+00  1.9693845658288167e-01 -2.4999999999997815e-03 0.0000000000000000e+00  2.0318650437293692e-01 -2.5000000000001813e-03 0.0000000000000000e+00  1.9693845658289080e-01 -2.4999999999997884e-03 0.0000000000000000e+00  2.0318650437294761e-01 -2.5000000000001956e-03 0.0000000000000000e+00  1.9693845658288972e-01 -2.4999999999997628e-03 0.0000000000000000e+00  2.0318650437293465e-01 -2.5000000000000929e-03 0.0000000000000000e+00  1.9693845658289055e-01 -2.5000000000000998e-03 0.0000000000000000e+00  2.0318650437293528e-01 -2.5000000000001852e-03 0.0000000000000000e+00  1.9693845658288911e-01 -2.4999999999997802e-03 0.0000000000000000e+00  2.0318650437293453e-01 -2.5000000000001510e-03 0.0000000000000000e+00  1.9693845658288259e-01 -2.4999999999997923e-03 0.0000000000000000e+00  2.0318650437293420e-01 -2.5000000000001414e-03 0.0000000000000000e+00  1.9693845658289358e-01 -2.4999999999999168e-03 0.0000000000000000e+00  2.0318650437293823e-01 -2.5000000000002633e-03 0.0000000000000000e+00  1.9693845658288203e-01 -2.4999999999998274e-03 0.0000000000000000e+00  2.0318650437292973e-01 -2.5000000000001787e-03 0.0000000000000000e+00  1.9693845658289524e-01 -2.4999999999997984e-03 0.0