<?xml version="1.0"?>
<VTKFile type="UnstructuredGrid"  version="0.1"  >
<UnstructuredGrid>
<Piece  NumberOfPoints="3073" NumberOfCells="5739">
<Points>
<DataArray  type="Float64"  NumberOfComponents="3"  format="ascii">0 0 0  6.5 -0.125 0  12 -0.125 0  12 0.125 0  6.5 0.125 0  0 1 0  12 0.875 0  6.5 0.875 0  -2.5 1 0  -2.5 0 0  3.25 0.0625 0  3.25 0.9375 0  3.25 -0.0625 0  9.25 0.125 0  9.25 0.875 0  9.25 -0.125 0  1.625 0.03125 0  1.625 0.96875 0  1.625 -0.03125 0  4.875 0.90625 0  4.875 0.09375 0  4.875 -0.09375 0  7.875 0.125 0  7.875 0.875 0  7.875 -0.125 0  10.625 0.875 0  10.625 0.125 0  10.625 -0.125 0  -1.25 1 0  -1.25 0 0  0.8125 0.015625 0  0.8125 0.984375 0  0.8125 -0.015625 0  2.4375 0.953125 0  2.4375 0.046875 0  2.4375 -0.046875 0  4.0625 0.078125 0  4.0625 0.921875 0  4.0625 -0.078125 0  5.6875 0.109375 0  5.6875 0.890625 0  5.6875 -0.109375 0  -1.875 0 0  -1.875 1 0  -0.625 0 0  -0.625 1 0  8.5625 0.875 0  8.5625 0.125 0  8.5625 -0.125 0  7.1875 0.125 0  7.1875 0.875 0  7.1875 -0.125 0  11.3125 0.125 0  11.3125 0.875 0  11.3125 -0.125 0  9.9375 0.125 0  9.9375 0.875 0  9.9375 -0.125 0  0 0.5 0  1.209585336538462 0.5 0  2.022385817307693 0.5 0  2.835186298076923 0.5 0  3.647986778846154 0.5 0  -0.9375 0.5 0  -1.5625 0.5 0  -2.5 0.5 0  4.460787259615385 0.5 0  5.28125 0.1015625 0  5.28125 0.8984375 0  5.28125 -0.1015625 0  6.09375 0.8828125 0  6.09375 0.1171875 0  6.09375 -0.1171875 0  8.90625 0.5 0  7.53125 0.5 0  8.21875 0.5 0  6.84375 0.5 0  10.28125 0.5 0  10.96875 0.5 0  12 0.5 0  9.59375 0.5 0  0.5506310096153846 0.5 0  -0.46875 0.4453125 0  -2.03125 0.4453125 0  5.070387620192307 0.5 0  5.883188100961538 0.5 0  4.46875 0.0859375 0  4.46875 -0.0859375 0  3.65625 -0.0703125 0  3.65625 0.0703125 0  2.84375 0.0546875 0  2.84375 -0.0546875 0  2.03125 -0.0390625 0  2.03125 0.0390625 0  1.21875 0.0234375 0  1.21875 -0.0234375 0  4.054387019230769 0.4847310450995098 0  3.241586538461538 0.4699247074852732 0  1.615985576923077 0.4417102219320143 0  5.476787860576923 0.53993893765092 0  2.428786057692307 0.4556005042418 0  0.40625 0.0078125 0  0.40625 -0.0078125 0  0.40625 0.9921875 0  4.46875 0.9140625 0  3.65625 0.9296875 0  2.84375 0.9453125 0  2.03125 0.9609375 0  1.21875 0.9765625 0  11.65625 0.875 0  11.484375 0.5 0  6.467329545454546 0.5 0  9.59375 -0.125 0  9.59375 0.125 0  10.28125 -0.125 0  10.28125 0.125 0  10.96875 -0.125 0  10.96875 0.125 0  6.84375 -0.125 0  6.84375 0.125 0  7.53125 -0.125 0  7.53125 0.125 0  8.21875 -0.125 0  8.21875 0.125 0  8.90625 -0.125 0  8.90625 0.125 0  11.65625 -0.125 0  11.65625 0.125 0  -0.3125 1 0  -2.1875 1 0  9.25 0.4700520833333333 0  9.59375 0.875 0  9.9375 0.5299479166666666 0  10.625 0.4700520833333333 0  10.96875 0.875 0  10.28125 0.875 0  6.84375 0.875 0  7.1875 0.5299479166666666 0  7.875 0.4700520833333333 0  8.21875 0.875 0  8.5625 0.5299479166666666 0  7.53125 0.875 0  8.90625 0.875 0  0.8801081730769231 0.63484883039911 0  -2.1875 0 0  -0.3125 0 0  0 0.25 0  0.2753155048076923 0.6865079365079365 0  1.011042668269231 0.2578125 0  1.446827777824054 0.7082004557951647 0  -1.25 0.65234375 0  -1.284375 0.326171875 0  -1.5625 0 0  -1.5625 1 0  -0.9375 0 0  -0.9375 1 0  1.823692908653846 0.7343749999999999 0  2.250687166802934 0.7075583934794667 0  4.765587439903847 0.3964836665810265 0  0.2753155048076923 0.375 0  3.054829110674799 0.707148526758953 0  2.636343149038462 0.7265625000000001 0  3.859250973615127 0.7069998487229827 0  3.448993389423077 0.7187500000000001 0  -0.78125 0.75 0  -0.78125 0.25 0  0 0.75 0  -2.5 0.25 0  -2.240776699029126 0.6856416868932038 0  -1.775 0.28515625 0  -1.71875 0.75 0  6.175258823208043 0.5886645441611957 0  4.261643629807693 0.7109374999999998 0  4.667893629807693 0.7031250000000002 0  1.824167367109634 0.2409531602990362 0  2.636686615214766 0.2555772588321514 0  1.38325552388875 0.2649704395311445 0  -0.46875 0.7446632922535211 0  3.449201796915416 0.2704128103983777 0  2.203202991433102 0.2729232708226779 0  4.261712450328808 0.2854838329019752 0  3.023283383806745 0.2808786583609286 0  3.843540099517909 0.288837436732593 0  0.6331235396611878 0.7683768130429148 0  0.6054339511832376 0.2166532884716425 0  6.256771799991964 0.3317884692185022 0  -0.2486470253814554 0.5949878961267605 0  -1.984670937186905 0.7576275392581842 0  11.2265625 0.3912760416666667 0  11.7421875 0.3912760416666667 0  -1.036405127827206 0.2643561701079966 0  10.78053977272727 0.6725260416666666 0  8.734375 0.3125 0  8.390625 0.3125 0  7.359375 0.3125 0  7.015625 0.3125 0  10.109375 0.3125 0  9.765625 0.3125 0  6.671875 0.3125 0  6.655539772727273 0.6725260416666669 0  11.78555345556989 0.6484760842723984 0  9.405539772727273 0.6725260416666666 0  9.094460227272727 0.6725260416666666 0  10.46946022727273 0.6725260416666666 0  11.140625 0.6875 0  8.030539772727273 0.6725260416666666 0  7.719460227272728 0.6725260416666666 0  -2.277018229166667 0.375 0  -0.2686215753424658 0.2654644691780822 0  0.7924173055676504 0.3931430043056919 0  -2.5 0.75 0  -1.525008560462654 0.2496950333675564 0  10.12440567787247 0.6875 0  9.765625 0.7024739583333333 0  7.374405677872475 0.6875 0  7.015625 0.7024739583333333 0  8.749405677872474 0.6875 0  8.390625 0.7024739583333333 0  7.703125 0.2975260416666667 0  8.046875 0.2975260416666666 0  10.453125 0.2975260416666667 0  10.81190567787247 0.3125 0  9.078125 0.2975260416666667 0  9.421875 0.2975260416666666 0  1.115551444307063 0.7401777158454262 0  5.28922999544003 0.360801083570939 0  5.078125 0.09765625 0  5.078125 -0.09765625 0  5.664767392260801 0.3650917682044265 0  -1.479229041916168 0.7258724738023952 0  -1.029665898617512 0.7685681883640553 0  0.203125 0.00390625 0  0.203125 -0.00390625 0  6.296875 0.12109375 0  6.296875 -0.12109375 0  -2.00322265625 0.205078125 0  -0.6971783980582524 0.5236271237864077 0  -0.546875 0.22265625 0  -1.801855111236272 0.5242311804773303 0  5.484375 0.10546875 0  5.890625 -0.11328125 0  5.890625 0.11328125 0  4.903633313301282 0.6699100680171115 0  5.260369462255295 0.6544725809557483 0  4.972693810096154 0.296875 0  4.671875 0.08984375 0  4.671875 -0.08984375 0  5.078125 0.90234375 0  4.265625 -0.08203125 0  4.265625 0.08203125 0  6.03259461594712 0.3328645427790781 0  5.890625 0.88671875 0  5.692656615207549 0.6488796598294736 0  6.296875 0.87890625 0  3.859375 0.07421875 0  3.859375 -0.07421875 0  4.561082497482947 0.2948209397629855 0  2.036725213111611 0.7135654082038703 0  3.453125 0.06640625 0  3.453125 -0.06640625 0  11.828125 0.125 0  11.828125 -0.125 0  11.484375 0.125 0  11.484375 -0.125 0  9.078125 0.125 0  9.078125 -0.125 0  8.734375 0.125 0  8.734375 -0.125 0  8.390625 0.125 0  8.390625 -0.125 0  8.046875 0.125 0  8.046875 -0.125 0  7.703125 0.125 0  7.703125 -0.125 0  7.359375 0.125 0  7.359375 -0.125 0  7.015625 0.125 0  7.015625 -0.125 0  6.671875 0.125 0  6.671875 -0.125 0  11.140625 0.125 0  11.140625 -0.125 0  10.796875 0.125 0  10.796875 -0.125 0  10.453125 0.125 0  10.453125 -0.125 0  10.109375 0.125 0  10.109375 -0.125 0  9.765625 0.125 0  9.765625 -0.125 0  9.421875 0.125 0  9.421875 -0.125 0  3.046875 0.05859375 0  3.046875 -0.05859375 0  2.846431093850899 0.7350694856199397 0  2.640625 -0.05078125 0  2.640625 0.05078125 0  0.203125 0.99609375 0  6.362699038303388 0.6807243972366781 0  2.234375 0.04296875 0  2.234375 -0.04296875 0  11.581701212888 0.6822801732596659 0  11.35203598484848 0.6662326388888888 0  1.828125 0.03515625 0  1.828125 -0.03515625 0  5.984553033425814 0.6914815580202875 0  1.822525515412832 0.4475696738977717 0  1.41733060903937 0.5025442175645189 0  1.588893519464248 0.2357861358511414 0  3.654445727495178 0.7241715610932831 0  -0.2708370651139332 0.7990289667308481 0  1.421875 0.02734375 0  1.421875 -0.02734375 0  5.484375 0.89453125 0  2.633855454650776 0.460690271159621 0  2.40795634504651 0.2507007772874862 0  2.225403489025307 0.476130253335854 0  1.015625 -0.01953125 0  1.015625 0.01953125 0  3.227321013248274 0.265830895248878 0  3.445567521085816 0.4744107463092357 0  3.038321171612397 0.4840806912614364 0  0.609375 0.01171875 0  0.609375 -0.01171875 0  4.257720382725849 0.4888191036475296 0  4.047058936483319 0.2812008669921838 0  3.851174586896061 0.4920378211671812 0  0.609375 0.98828125 0  4.464694218296445 0.7031618514150944 0  4.671875 0.91015625 0  4.265625 0.91796875 0  3.453125 0.93359375 0  3.859375 0.92578125 0  2.640625 0.94921875 0  3.046875 0.94140625 0  2.234375 0.95703125 0  1.828125 0.96484375 0  1.421875 0.97265625 0  1.015625 0.98046875 0  5.484375 -0.10546875 0  4.060661963989729 0.6870321141431521 0  -2.34375 0 0  -2.34375 1 0  1.003521337202078 0.4664537109579014 0  3.646922073215719 0.2678295141073984 0  3.253141618048695 0.6711470624742265 0  0.3013894287350291 0.1773590807784885 0  -1.124347644480009 0.4398459561477482 0  2.831246172847781 0.248957659490205 0  2.446473427278441 0.6570274073729461 0  -2.198800970885971 0.1954869700666445 0  2.01591648071966 0.2304840455985115 0  0.827600060761903 0.2057214409193794 0  1.640609275971101 0.6442729681322822 0  -0.15625 0 0  6.483664772727272 0.3124999999999999 0  5.477125710212377 0.3518294601818938 0  11.41161533959385 0.3125 0  12 0.3125 0  11.04150966040615 0.3125 0  12 0.6875 0  1.198054295914707 0.2143210783083181 0  -1.40625 0 0  0.9109798103993655 0.8221220157670066 0  5.845812869360681 0.3162425406240469 0  0.4667569911039429 0.6726473502422988 0  0.4593425712678239 0.3353704711440587 0  8.211153274166278 0.6806358075271245 0  9.586153274166278 0.6806358075271245 0  6.835007346992159 0.6944141097550816 0  6.663707386363637 0.4925130208333334 0  10.96058238636364 0.680013020833333 0  -1.40625 1 0  -1.320649221029402 0.826171875 0  5.082724050007036 0.6788909168133963 0  -0.1275597151206816 0.375 0  0.7018834652202378 0.6003751687871122 0  -1.71875 0 0  5.523196914803937 0.7163232589905226 0  0.3602612407862962 0.5307539682539683 0  0.1786479052710517 0.5327459553507268 0  1.289006631999016 0.8051714473419221 0  -1.328125 0.1566637818113773
[...]
<PointData  Vectors="f_491"> 
<DataArray  type="Float64"  Name="f_491"  NumberOfComponents="3" format="ascii">-1.6896384371639612e-02 -7.3474861099536829e-07 0.0000000000000000e+00  2.0624804779006264e-01 -1.2500000000000044e-01 0.0000000000000000e+00  2.0624804779007105e-01 -1.2500000000000019e-01 0.0000000000000000e+00  1.9999999999999885e-01 -1.2499999999999983e-01 0.0000000000000000e+00  2.0000000000000401e-01 -1.2499843246013165e-01 0.0000000000000000e+00  -1.6896384371639612e-02 -7.3474861099536829e-07 0.0000000000000000e+00  1.8125585662986735e-01 -1.2499999999999840e-01 0.0000000000000000e+00  1.8125585662986074e-01 -1.2499999999999857e-01 0.0000000000000000e+00  -1.3241737197765483e-02 1.0667829490361485e-15 0.0000000000000000e+00  -1.3241737197765483e-02 1.0667829490361485e-15 0.0000000000000000e+00  1.0000000000000045e-01 -3.7496863330137159e-02 0.0000000000000000e+00  7.8131832734825379e-02 -8.7502677776217327e-02 0.0000000000000000e+00  1.0312402389502075e-01 -8.7503070960601601e-02 0.0000000000000000e+00  2.0000000000002538e-01 -1.2499999999999972e-01 0.0000000000000000e+00  1.8125585662987090e-01 -1.2499999999999889e-01 0.0000000000000000e+00  2.0624804779006992e-01 -1.2500000000000033e-01 0.0000000000000000e+00  5.0000000000000926e-02 -1.2498959846939028e-02 0.0000000000000000e+00  2.6569820787309323e-02 -5.0003686711741997e-02 0.0000000000000000e+00  5.1562011947513149e-02 -5.0001477146316725e-02 0.0000000000000000e+00  1.2969384468233283e-01 -1.1250182801219960e-01 0.0000000000000000e+00  1.5000000000000138e-01 -7.4997158301133446e-02 0.0000000000000000e+00  1.5468603584254537e-01 -1.1250305189705792e-01 0.0000000000000000e+00  2.0000000000001281e-01 -1.2499999999999996e-01 0.0000000000000000e+00  1.8125585662986582e-01 -1.2499999999999832e-01 0.0000000000000000e+00  2.0624804779006828e-01 -1.2500000000000017e-01 0.0000000000000000e+00  1.8125585662986535e-01 -1.2499999999999910e-01 0.0000000000000000e+00  2.0000000000001880e-01 -1.2499999999999983e-01 0.0000000000000000e+00  2.0624804779007430e-01 -1.2500000000000044e-01 0.0000000000000000e+00  -9.1959356776957109e-03 8.5993073314109909e-16 0.0000000000000000e+00  -9.1959356776957109e-03 8.5993073314109909e-16 0.0000000000000000e+00  2.5000000020971740e-02 -4.6866479309363371e-03 0.0000000000000000e+00  7.8881519066414539e-04 -2.6565529518232888e-02 0.0000000000000000e+00  2.5781005956252961e-02 -2.6563644579146069e-02 0.0000000000000000e+00  5.2350826761065644e-02 -7.0315664651520893e-02 0.0000000000000000e+00  7.4999999999999095e-02 -2.3436695775944216e-02 0.0000000000000000e+00  7.7343017921268020e-02 -7.0313598865615404e-02 0.0000000000000000e+00  1.2500000000000416e-01 -5.4684550594787322e-02 0.0000000000000000e+00  1.0391283870857997e-01 -1.0156554595077574e-01 0.0000000000000000e+00  1.2890502986878782e-01 -1.0156554268297854e-01 0.0000000000000000e+00  1.7500000000000199e-01 -9.8433525834900643e-02 0.0000000000000000e+00  1.5547485065609329e-01 -1.2031621720392412e-01 0.0000000000000000e+00  1.8046704181629442e-01 -1.2031546293319147e-01 0.0000000000000000e+00  -1.3834922213871422e-02 8.1776642816328009e-16 0.0000000000000000e+00  -1.3834922213871422e-02 8.1776642816328009e-16 0.0000000000000000e+00  -1.5612768105973280e-02 4.7191631362021404e-14 0.0000000000000000e+00  -1.5612768105973280e-02 4.7191631362021404e-14 0.0000000000000000e+00  1.8125585662985491e-01 -1.2499999999999922e-01 0.0000000000000000e+00  2.0000000000002702e-01 -1.2499999999999979e-01 0.0000000000000000e+00  2.0624804779007008e-01 -1.2500000000000036e-01 0.0000000000000000e+00  2.0000000000001486e-01 -1.2500000000000003e-01 0.0000000000000000e+00  1.8125585662986915e-01 -1.2499999999999825e-01 0.0000000000000000e+00  2.0624804779006195e-01 -1.2500000000000028e-01 0.0000000000000000e+00  2.0000000000002702e-01 -1.2499999999999975e-01 0.0000000000000000e+00  1.8125585662986002e-01 -1.2499999999999861e-01 0.0000000000000000e+00  2.0624804779007042e-01 -1.2500000000000028e-01 0.0000000000000000e+00  2.0000000000002438e-01 -1.2499999999999990e-01 0.0000000000000000e+00  1.8125585662986693e-01 -1.2499999999999913e-01 0.0000000000000000e+00  2.0624804779006414e-01 -1.2500000000000036e-01 0.0000000000000000e+00  -1.2495427956057013e-02 -1.3886460196041784e-11 0.0000000000000000e+00  2.5303264529407371e-02 -2.3258729697356643e-02 0.0000000000000000e+00  5.0703157296130209e-02 -3.8890637374089369e-02 0.0000000000000000e+00  7.6103046907808031e-02 -5.4521939650816337e-02 0.0000000000000000e+00  1.0150287651395791e-01 -7.0153236169505417e-02 0.0000000000000000e+00  -1.2496027735499802e-02 -2.6592763859688327e-10 0.0000000000000000e+00  -1.2496099861950960e-02 -3.7658863865714406e-11 0.0000000000000000e+00  -1.2495864577359782e-02 1.3037097991070253e-15 0.0000000000000000e+00  1.2690143929092038e-01 -8.5783195567245424e-02 0.0000000000000000e+00  1.6250000000000367e-01 -8.6325910811364148e-02 0.0000000000000000e+00  1.4258434766921221e-01 -1.1679897958831961e-01 0.0000000000000000e+00  1.6757653882941853e-01 -1.1680000627111428e-01 0.0000000000000000e+00  1.6836535364297131e-01 -1.2304989840451773e-01 0.0000000000000000e+00  1.8750000000000089e-01 -1.1132550626892058e-01 0.0000000000000000e+00  1.9335754480317768e-01 -1.2304962090287978e-01 0.0000000000000000e+00  1.9062773629245466e-01 -1.2499988164451124e-01 0.0000000000000000e+00  1.9056620315767048e-01 -1.2496195333306623e-01 0.0000000000000000e+00  1.9062447269913291e-01 -1.2499787009691135e-01 0.0000000000000000e+00  1.8952347179615212e-01 -1.2431940880545907e-01 0.0000000000000000e+00  1.9062792771753920e-01 -1.2499999963177312e-01 0.0000000000000000e+00  1.9062792828153305e-01 -1.2499999997939555e-01 0.0000000000000000e+00  1.9062792831493863e-01 -1.2499999999999914e-01 0.0000000000000000e+00  1.9062791756141706e-01 -1.2499999337191695e-01 0.0000000000000000e+00  4.7110417346420035e-03 -1.0593946224967838e-02 0.0000000000000000e+00  -1.1131981601121940e-02 -1.1543811089736555e-09 0.0000000000000000e+00  -1.1128348422488148e-02 -8.0633829657320289e-12 0.0000000000000000e+00  1.4593816378774760e-01 -9.7501166323114744e-02 0.0000000000000000e+00  1.7098138591615586e-01 -1.1291587289237182e-01 0.0000000000000000e+00  1.3749999999999729e-01 -6.4449847894169382e-02 0.0000000000000000e+00  1.4179553285566274e-01 -1.0742490144493030e-01 0.0000000000000000e+00  1.1601452688190554e-01 -9.4924951603872834e-02 0.0000000000000000e+00  1.1249999999999735e-01 -4.5700195031367651e-02 0.0000000000000000e+00  8.7500000000001160e-02 -3.0075010837592946e-02 0.0000000000000000e+00  9.0233520908148054e-02 -7.9299818249819382e-02 0.0000000000000000e+00  6.4452514934389443e-02 -6.0548041694544537e-02 0.0000000000000000e+00  6.2500000000001027e-02 -1.7577196901329462e-02 0.0000000000000000e+00  3.7499999999997910e-02 -8.1991435786168045e-03 0.0000000000000000e+00  3.8671508960629465e-02 -3.8675844648374889e-02 0.0000000000000000e+00  1.1458419377764414e-01 -7.7125039126119455e-02 0.0000000000000000e+00  8.9554629204043182e-02 -6.0630005560895490e-02 0.0000000000000000e+00  3.9460000249610994e-02 -2.8773878890213142e-02 0.0000000000000000e+00  1.5758238229303237e-01 -1.0660955626193550e-01 0.0000000000000000e+00  6.4512743824366808e-02 -4.4427425596241910e-02 0.0000000000000000e+00  1.2500014780147168e-02 -1.9531047126494390e-03 0.0000000000000000e+00  1.2890491734379696e-02 -1.3672293836682869e-02 0.0000000000000000e+00  -1.2098670559648949e-02 -1.3673944331923432e-02 0.0000000000000000e+00  1.1680334169545648e-01 -1.0742530253464089e-01 0.0000000000000000e+00  9.1022335721702263e-02 -9.4925486593102876e-02 0.0000000000000000e+00  6.5241329747950133e-02 -7.9299812245844342e-02 0.0000000000000000e+00  3.9460323774192840e-02 -6.0549027267450879e-02 0.0000000000000000e+00  1.3679317800053702e-02 -3.8674773057519866e-02 0.0000000000000000e+00  1.8125585662986848e-01 -1.2499999999999768e-01 0.0000000000000000e+00  1.9062792831116010e-01 -1.2499999999766688e-01 0.0000000000000000e+00  1.8575999574480451e-01 -1.2199577535698689e-01 0.0000000000000000e+00  2.0624804779007483e-01 -1.2500000000000031e-01 0.0000000000000000e+00  2.0000000000002385e-01 -1.2499999999999992e-01 0.0000000000000000e+00  2.0624804779006883e-01 -1.2500000000000036e-01 0.0000000000000000e+00  2.0000000000002746e-01 -1.2500000000000003e-01 0.0000000000000000e+00  2.0624804779006614e-01 -1.2500000000000036e-01 0.0000000000000000e+00  2.0000000000003623e-01 -1.2499999999999979e-01 0.0000000000000000e+00  2.0624804779006417e-01 -1.2500000000000039e-01 0.0000000000000000e+00  2.0000000000001047e-01 -1.2499999999999990e-01 0.0000000000000000e+00  2.0624804779006112e-01 -1.2500000000000042e-01 0.0000000000000000e+00  2.0000000000001855e-01 -1.2499999999999989e-01 0.0000000000000000e+00  2.0624804779006539e-01 -1.2500000000000019e-01 0.0000000000000000e+00  2.0000000000001975e-01 -1.2499999999999976e-01 0.0000000000000000e+00  2.0624804779006603e-01 -1.2500000000000044e-01 0.0000000000000000e+00  2.0000000000000820e-01 -1.2499999999999997e-01 0.0000000000000000e+00  2.0624804779007946e-01 -1.2500000000000022e-01 0.0000000000000000e+00  2.0000000000001802e-01 -1.2499999999999990e-01 0.0000000000000000e+00  -1.3515728145710202e-02 1.5248595272854731e-10 0.0000000000000000e+00  -1.0003981230676437e-02 7.0244527235298134e-16 0.0000000000000000e+00  1.9137634737238512e-01 -1.2499997226320932e-01 0.0000000000000000e+00  1.8125585662986585e-01 -1.2499999999999856e-01 0.0000000000000000e+00  1.8987946172456885e-01 -1.2499999843925071e-01 0.0000000000000000e+00  1.9137639223316641e-01 -1.2499999991373005e-01 0.0000000000000000e+00  1.8125585662987392e-01 -1.2499999999999864e-01 0.0000000000000000e+00  1.8125585662985955e-01 -1.2499999999999852e-01 0.0000000000000000e+00  1.8125585662986091e-01 -1.2499999999999804e-01 0.0000000000000000e+00  1.8961864880743998e-01 -1.2483965282980729e-01 0.0000000000000000e+00  1.9136192233172131e-01 -1.2499108001833997e-01 0.0000000000000000e+00  1.8125585662986443e-01 -1.2499999999999825e-01 0.0000000000000000e+00  1.8987865053375530e-01 -1.2499949845547784e-01 0.0000000000000000e+00  1.8125585662986635e-01 -1.2499999999999832e-01 0.0000000000000000e+00  1.8125585662986068e-01 -1.2499999999999828e-01 0.0000000000000000e+00  1.1636984915762830e-02 -2.0156396126708564e-02 0.0000000000000000e+00  -1.0003981230676437e-02 7.0244527235298134e-16 0.0000000000000000e+00  -1.3515728145710202e-02 1.5248595272854731e-10 0.0000000000000000e+00  -6.2906105440756173e-03 -2.2298316067634108e-10 0.0000000000000000e+00  -8.5557434867712841e-03 -6.7878947721721613e-03 0.0000000000000000e+00  2.5151632266835550e-02 -1.2879134572066603e-02 0.0000000000000000e+00  2.7513669592477252e-02 -3.5399486682398909e-02 0.0000000000000000e+00  -1.6312865439217339e-02 -8.6123273201473440e-11 0.0000000000000000e+00  -8.1394216994219813e-03 -8.0113863398998345e-11 0.0000000000000000e+00  -1.5065147393147524e-02 1.1571247725599036e-15 0.0000000000000000e+00  -1.5065147393147524e-02 1.1571247725599036e-15 0.0000000000000000e+00  -1.0767467645632431e-02 -2.5947463527932407e-16 0.0000000000000000e+00  -1.0767467645632431e-02 -2.5947463527932407e-16 0.0000000000000000e+00  3.8636489072453109e-02 -4.5190611593203936e-02 0.0000000000000000e+00  5.2650201000113528e-02 -5.3520807559871125e-02 0.0000000000000000e+00  1.3901076692729733e-01 -8.6714050086189765e-02 0.0000000000000000e+00  -7.6858278094675092e-04 -4.2953835226255633e-03 0.0000000000000000e+00  7.7789754069368749e-02 -7.0389255281105761e-02 0.0000000000000000e+00  6.4226937371881732e-02 -6.2801225423944243e-02 0.0000000000000000e+00  1.0293143308615989e-01 -8.5889750463708350e-02 0.0000000000000000e+00  8.9817365551710784e-02 -7.8835525190741468e-02 0.0000000000000000e+00  -1.8692264941499375e-02 -2.4270356059847121e-10 0.0000000000000000e+00  -6.3143396988544209e-03 -3.9251935208756223e-10 0.0000000000000000e+00  -1.8700494101157244e-02 -2.2880596999362831e-09 0.0000000000000000e+00  -6.2464013019793438e-03 2.7270304624577325e-16 0.0000000000000000e+00  -1.7080685560390874e-02 -3.0164210689221075e-12 0.0000000000000000e+00  -7.0433829328181144e-03 -1.5139348164354374e-11 0.0000000000000000e+00  -1.8684630840470114e-02 -1.5991341641026914e-11 0.0000000000000000e+00  1.7712146927485403e-01 -1.1914246688213173e-01 0.0000000000000000e+00  1.1540737955474249e-01 -9.3291751059460956e-02 0.0000000000000000e+00  1.2829614971904371e-01 -9.9735876863569800e-02 0.0000000000000000e+00  5.0983008774634166e-02 -2.3886667925521240e-02 0.0000000000000000e+00  7.6008623898253816e-02 -3.7644691672507766e-02 0.0000000000000000e+00  3.6604335503883416e-02 -1.8345058585220880e-02 0.0000000000000000e+00  -1.8533954000478713e-02 -4.2482498711477095e-10 0.0000000000000000e+00  1.0102880770973459e-01 -5.3201208544754540e-02 0.0000000000000000e+00  6.2028811789789126e-02 -3.1305561589281258e-02 0.0000000000000000e+00  1.2604255546487814e-01 -7.0425085679391652e-02 0.0000000000000000e+00  8.7457373650037834e-02 -4.5856589055609132e-02 0.0000000000000000e+00  1.1289127261091664e-01 -6.1991869799587901e-02 0.0000000000000000e+00  5.8160306976218017e-04 -1.6959659959288720e-02 0.0000000000000000e+00  1.3505077094219074e-02 -6.7982484809660680e-03 0.0000000000000000e+00  1.8589800652177865e-01 -1.1789029335211966e-01 0.0000000000000000e+00  -1.4868532168704526e-02 -7.9450516870341338e-10 0.0000000000000000e+00  -1.8928495640130133e-02 -6.5938076245011657e-12 0.0000000000000000e+00  1.9334517825510550e-01 -1.2499999999370731e-01 0.0000000000000000e+00  1.9334517826428857e-01 -1.2499999999935715e-01 0.0000000000000000e+00  -6.6571308889197458e-03 -1.6144256305938707e-10 0.0000000000000000e+00  1.8631612444567894e-01 -1.2499999996559175e-01 0.0000000000000000e+00  1.9531368578585767e-01 -1.2499982841887056e-01 0.0000000000000000e+00  1.9531278020028725e-01 -1.2499927019420189e-01 0.0000000000000000e+00  1.9522443144221252e-01 -1.2494445081166992e-01 0.0000000000000000e+00  1.9493117637474841e-01 -1.2475758926122478e-01 0.0000000000000000e+00  1.9531396329135728e-01 -1.2499999946614546e-01 0.0000000000000000e+00  1.9531396047381239e-01 -1.2499999772951960e-01 0.0000000000000000e+00  1.9366544128486970e-01 -1.2386282819999798e-01 0.0000000000000000e+00  1.8443534189423244e-01 -1.2398044516748383e-01 0.0000000000000000e+00  1.8691718563336515e-01 -1.2499999999954149e-01 0.0000000000000000e+00  1.8631610658643044e-01 -1.2499998895783111e-01 0.0000000000000000e+00  1.8631605918265265e-01 -1.2499995974005169e-01 0.0000000000000000e+00  1.8631612429778360e-01 -1.2499999987443060e-01 0.0000000000000000e+00  1.8594189246100762e-01 -1.2499999999296837e-01 0.0000000000000000e+00  1.8631037842996739e-01 -1.2499645957196623e-01 0.0000000000000000e+00  1.8629505956497852e-01 -1.2498703303355067e-01 0.0000000000000000e+00  -9.3503096525931750e-03 -2.7952466235419992e-12 0.0000000000000000e+00  -6.6858178744578474e-03 -3.7347782242473021e-09 0.0000000000000000e+00  1.4937416648775334e-02 -1.2910355774551642e-02 0.0000000000000000e+00  -1.8602328942528130e-02 9.4917874410205876e-16 0.0000000000000000e+00  -6.3299900390627883e-03 -3.0755739023093411e-11 0.0000000000000000e+00  1.8594189165621777e-01 -1.2499999949692482e-01 0.0000000000000000e+00  1.8556765699238087e-01 -1.2499999787296545e-01 0.0000000000000000e+00  1.8585737679124370e-01 -1.2494821884981391e-01 0.0000000000000000e+00  1.8521269876070667e-01 -1.2478768027426440e-01 0.0000000000000000e+00  1.8594163018165336e-01 -1.2499983833657217e-01 0.0000000000000000e+00  1.8556655171386252e-01 -1.2499931667764534e-01 0.0000000000000000e+00  1.9566842899157522e-01 -1.2498779712768730e-01 0.0000000000000000e+00  1.9568351621378832e-01 -1.2499711438892225e-01 0.0000000000000000e+00  1.9568819599517367e-01 -1.2499999988202128e-01 0.0000000000000000e+00  1.9531396411151225e-01 -1.2499999997166060e-01 0.0000000000000000e+00  1.9568813472480664e-01 -1.2499996211708979e-01 0.0000000000000000e+00  1.9568818163764040e-01 -1.2499999103256386e-01 0.0000000000000000e+00  1.6362152137504794e-02 -2.8535713367749321e-02 0.0000000000000000e+00  1.5624120527142341e-01 -9.6444417065382065e-02 0.0000000000000000e+00  1.5625000000000469e-01 -8.0564322873403607e-02 0.0000000000000000e+00  1.6113128733598256e-01 -1.1474913346473299e-01 0.0000000000000000e+00  1.6776795119471172e-01 -1.0504189905590125e-01 0.0000000000000000e+00  -1.8030957556837264e-02 -3.6192572464917333e-11 0.0000000000000000e+00  -1.9237237783247679e-02 -1.1924900410788945e-10 0.0000000000000000e+00  6.2508834845298534e-03 -8.7876358540817220e-04 0.0000000000000000e+00  6.4446966226130234e-03 -6.9336430405576559e-03 0.0000000000000000e+00  1.9375000000000792e-01 -1.1806380513604744e-01 0.0000000000000000e+00  1.9980279629660919e-01 -1.2412401487447647e-01 0.0000000000000000e+00  -4.8763392267269770e-03 -5.4600522073451958e-12 0.0000000000000000e+00  -1.3086711331318683e-02 -5.3237190818139371e-10 0.0000000000000000e+00  -5.5534717537698867e-03 -9.9765205429255969e-10 0.0000000000000000e+00  -1.3101025676720272e-02 -1.7549461655647267e-11 0.0000000000000000e+00  1.6874999999999837e-01 -9.2283428985217630e-02 0.0000000000000000e+00  1.8691229330973422e-01 -1.2178027602429152e-01 0.0000000000000000e+00  1.8124999999999308e-01 -1.0478314267991626e-01 0.0000000000000000e+00  1.3648928522878526e-01 -1.0200660407425982e-01 0.0000000000000000e+00  1.4800390693845741e-01 -1.0707460752195387e-01 0.0000000000000000e+00  1.4796938783453881e-01 -8.6659194258836184e-02 0.0000000000000000e+00  1.4375000000000127e-01 -6.9626418604133683e-02 0.0000000000000000e+00  1.4824078434909760e-01 -1.1006167652589353e-01 0.0000000000000000e+00  1.3613909617577019e-01 -1.1474831337436299e-01 0.0000000000000000e+00  1.3535028136222185e-01 -1.0459286338051878e-01 0.0000000000000000e+00  1.3124999999999892e-01 -5.9469795189420291e-02 0.0000000000000000e+00  1.7966651024084057e-01 -1.1281827124371122e-01 0.0000000000000000e+00  1.6192010214953498e-01 -1.2178063645109305e-01 0.0000000000000000e+00  1.6153688350537529e-01 -1.1348304913364486e-01 0.0000000000000000e+00  1.7481060513641258e-01 -1.2412440778821306e-01 0.0000000000000000e+00  1.1875000000000019e-01 -5.0094714485052171e-02 0.0000000000000000e+00  1.2245977837534386e-01 -9.8342901284576220e-02 0.0000000000000000e+00  1.3516346247534977e-01 -7.7343052225902695e-02 0.0000000000000000e+00  4.5813793801171641e-02 -4.9082299860257111e-02 0.0000000000000000e+00  1.0625000000000005e-01 -4.1501834058569220e-02 0.0000000000000000e+00  1.0956927538846710e-01 -9.1311629492088819e-02 0.0000000000000000e+00  2.0000000000003779e-01 -1.2499999999999994e-01 0.0000000000000000e+00  2.0624804779008130e-01 -1.2500000000000022e-01 0.0000000000000000e+00  2.0000000000001433e-01 -1.2499999999999985e-01 0.0000000000000000e+00  2.0624804779006720e-01 -1.2500000000000008e-01 0.0000000000000000e+00  2.0000000000002280e-01 -1.2499999999999994e-01 0.0000000000000000e+00  2.0624804779006969e-01 -1.2500000000000042e-01 0.0000000000000000e+00  2.0000000000002038e-01 -1.2499999999999993e-01 0.0000000000000000e+00  2.0624804779005507e-01 -1.2500000000000022e-01 0.0000000000000000e+00  2.0000000000001777e-01 -1.2500000000000006e-01 0.0000000000000000e+00  2.0624804779007827e-01 -1.2500000000000031e-01 0.0000000000000000e+00  2.0000000000001672e-01 -1.2499999999999975e-01 0.0000000000000000e+00  2.0624804779007044e-01 -1.2500000000000042e-01 0.0000000000000000e+00  2.0000000000001442e-01 -1.2499999999999981e-01 0.0000000000000000e+00  2.0624804779005262e-01 -1.2500000000000028e-01 0.0000000000000000e+00  2.0000000000001353e-01 -1.2499999999999988e-01 0.0000000000000000e+00  2.0624804779006004e-01 -1.2500000000000025e-01 0.0000000000000000e+00  2.0000000000001394e-01 -1.2499999999999985e-01 0.0000000000000000e+00  2.0624804779005759e-01 -1.2500000000000025e-01 0.0000000000000000e+00  2.0000000000001450e-01 -1.2499999999999999e-01 0.0000000000000000e+00  2.0624804779006958e-01 -1.2500000000000022e-01 