<?xml version="1.0"?>
<VTKFile type="UnstructuredGrid"  version="0.1"  >
<UnstructuredGrid>
<Piece  NumberOfPoints="6614" NumberOfCells="12519">
<Points>
<DataArray  type="Float64"  NumberOfComponents="3"  format="ascii">0 0 0  6.5 -0.125 0  12 -0.125 0  12 0.125 0  6.5 0.125 0  0 1 0  12 0.875 0  6.5 0.875 0  -2.5 1 0  -2.5 0 0  3.25 0.0625 0  3.25 0.9375 0  3.25 -0.0625 0  9.25 0.125 0  9.25 0.875 0  9.25 -0.125 0  1.625 0.03125 0  1.625 0.96875 0  1.625 -0.03125 0  4.875 0.90625 0  4.875 0.09375 0  4.875 -0.09375 0  7.875 0.125 0  7.875 0.875 0  7.875 -0.125 0  10.625 0.875 0  10.625 0.125 0  10.625 -0.125 0  -1.25 1 0  -1.25 0 0  0.8125 0.015625 0  0.8125 0.984375 0  0.8125 -0.015625 0  2.4375 0.953125 0  2.4375 0.046875 0  2.4375 -0.046875 0  4.0625 0.078125 0  4.0625 0.921875 0  4.0625 -0.078125 0  5.6875 0.109375 0  5.6875 0.890625 0  5.6875 -0.109375 0  -1.875 0 0  -1.875 1 0  -0.625 0 0  -0.625 1 0  8.5625 0.875 0  8.5625 0.125 0  8.5625 -0.125 0  7.1875 0.125 0  7.1875 0.875 0  7.1875 -0.125 0  11.3125 0.125 0  11.3125 0.875 0  11.3125 -0.125 0  9.9375 0.125 0  9.9375 0.875 0  9.9375 -0.125 0  0 0.5 0  1.209585336538462 0.5 0  2.022385817307693 0.5 0  2.835186298076923 0.5 0  3.647986778846154 0.5 0  -0.9375 0.5 0  -1.5625 0.5 0  -2.5 0.5 0  4.460787259615385 0.5 0  5.28125 0.1015625 0  5.28125 0.8984375 0  5.28125 -0.1015625 0  6.09375 0.8828125 0  6.09375 0.1171875 0  6.09375 -0.1171875 0  8.90625 0.5 0  7.53125 0.5 0  8.21875 0.5 0  6.84375 0.5 0  10.28125 0.5 0  10.96875 0.5 0  12 0.5 0  9.59375 0.5 0  0.5506310096153846 0.5 0  -0.46875 0.4453125 0  -2.03125 0.4453125 0  5.070387620192307 0.5 0  5.883188100961538 0.5 0  4.46875 0.0859375 0  4.46875 -0.0859375 0  3.65625 -0.0703125 0  3.65625 0.0703125 0  2.84375 0.0546875 0  2.84375 -0.0546875 0  2.03125 -0.0390625 0  2.03125 0.0390625 0  1.21875 0.0234375 0  1.21875 -0.0234375 0  4.054387019230769 0.4847310450995098 0  3.241586538461538 0.4699247074852732 0  1.615985576923077 0.4417102219320143 0  5.476787860576923 0.53993893765092 0  2.428786057692307 0.4556005042418 0  0.40625 0.0078125 0  0.40625 -0.0078125 0  0.40625 0.9921875 0  4.46875 0.9140625 0  3.65625 0.9296875 0  2.84375 0.9453125 0  2.03125 0.9609375 0  1.21875 0.9765625 0  11.65625 0.875 0  11.484375 0.5 0  6.467329545454546 0.5 0  9.59375 -0.125 0  9.59375 0.125 0  10.28125 -0.125 0  10.28125 0.125 0  10.96875 -0.125 0  10.96875 0.125 0  6.84375 -0.125 0  6.84375 0.125 0  7.53125 -0.125 0  7.53125 0.125 0  8.21875 -0.125 0  8.21875 0.125 0  8.90625 -0.125 0  8.90625 0.125 0  11.65625 -0.125 0  11.65625 0.125 0  -0.3125 1 0  -2.1875 1 0  9.25 0.4700520833333333 0  9.59375 0.875 0  9.9375 0.5299479166666666 0  10.625 0.4700520833333333 0  10.96875 0.875 0  10.28125 0.875 0  6.84375 0.875 0  7.1875 0.5299479166666666 0  7.875 0.4700520833333333 0  8.21875 0.875 0  8.5625 0.5299479166666666 0  7.53125 0.875 0  8.90625 0.875 0  0.8801081730769231 0.63484883039911 0  -2.1875 0 0  -0.3125 0 0  0 0.25 0  0.2753155048076923 0.6865079365079365 0  1.011042668269231 0.2578125 0  1.446827777824054 0.7082004557951647 0  -1.25 0.65234375 0  -1.284375 0.326171875 0  -1.5625 0 0  -1.5625 1 0  -0.9375 0 0  -0.9375 1 0  1.823692908653846 0.7343749999999999 0  2.250687166802934 0.7075583934794667 0  4.765587439903847 0.3964836665810265 0  0.2753155048076923 0.375 0  3.054829110674799 0.707148526758953 0  2.636343149038462 0.7265625000000001 0  3.859250973615127 0.7069998487229827 0  3.448993389423077 0.7187500000000001 0  -0.78125 0.75 0  -0.78125 0.25 0  0 0.75 0  -2.5 0.25 0  -2.240776699029126 0.6856416868932038 0  -1.775 0.28515625 0  -1.71875 0.75 0  6.175258823208043 0.5886645441611957 0  4.261643629807693 0.7109374999999998 0  4.667893629807693 0.7031250000000002 0  1.824167367109634 0.2409531602990362 0  2.636686615214766 0.2555772588321514 0  1.38325552388875 0.2649704395311445 0  -0.46875 0.7446632922535211 0  3.449201796915416 0.2704128103983777 0  2.203202991433102 0.2729232708226779 0  4.261712450328808 0.2854838329019752 0  3.023283383806745 0.2808786583609286 0  3.843540099517909 0.288837436732593 0  0.6331235396611878 0.7683768130429148 0  0.6054339511832376 0.2166532884716425 0  6.256771799991964 0.3317884692185022 0  -0.2486470253814554 0.5949878961267605 0  -1.984670937186905 0.7576275392581842 0  11.2265625 0.3912760416666667 0  11.7421875 0.3912760416666667 0  -1.036405127827206 0.2643561701079966 0  10.78053977272727 0.6725260416666666 0  8.734375 0.3125 0  8.390625 0.3125 0  7.359375 0.3125 0  7.015625 0.3125 0  10.109375 0.3125 0  9.765625 0.3125 0  6.671875 0.3125 0  6.655539772727273 0.6725260416666669 0  11.78555345556989 0.6484760842723984 0  9.405539772727273 0.6725260416666666 0  9.094460227272727 0.6725260416666666 0  10.46946022727273 0.6725260416666666 0  11.140625 0.6875 0  8.030539772727273 0.6725260416666666 0  7.719460227272728 0.6725260416666666 0  -2.277018229166667 0.375 0  -0.2686215753424658 0.2654644691780822 0  0.7924173055676504 0.3931430043056919 0  -2.5 0.75 0  -1.525008560462654 0.2496950333675564 0  7.703125 0.2975260416666667 0  8.046875 0.2975260416666666 0  10.453125 0.2975260416666667 0  10.81190567787247 0.3125 0  9.078125 0.2975260416666667 0  9.421875 0.2975260416666666 0  10.12440567787247 0.6875 0  9.765625 0.7024739583333333 0  7.374405677872475 0.6875 0  7.015625 0.7024739583333333 0  8.749405677872474 0.6875 0  8.390625 0.7024739583333333 0  1.115551444307063 0.7401777158454262 0  5.28922999544003 0.360801083570939 0  5.078125 0.09765625 0  5.078125 -0.09765625 0  5.664767392260801 0.3650917682044265 0  -1.479229041916168 0.7258724738023952 0  -1.029665898617512 0.7685681883640553 0  0.203125 0.00390625 0  0.203125 -0.00390625 0  6.296875 0.12109375 0  6.296875 -0.12109375 0  -2.00322265625 0.205078125 0  -0.6971783980582524 0.5236271237864077 0  -0.546875 0.22265625 0  -1.801855111236272 0.5242311804773303 0  5.484375 0.10546875 0  5.890625 -0.11328125 0  5.890625 0.11328125 0  4.903633313301282 0.6699100680171115 0  5.260369462255295 0.6544725809557483 0  4.972693810096154 0.296875 0  4.671875 0.08984375 0  4.671875 -0.08984375 0  5.078125 0.90234375 0  4.265625 -0.08203125 0  4.265625 0.08203125 0  6.03259461594712 0.3328645427790781 0  5.890625 0.88671875 0  5.692656615207549 0.6488796598294736 0  6.296875 0.87890625 0  3.859375 0.07421875 0  3.859375 -0.07421875 0  4.561082497482947 0.2948209397629855 0  2.036725213111611 0.7135654082038703 0  3.453125 0.06640625 0  3.453125 -0.06640625 0  11.828125 0.125 0  11.828125 -0.125 0  11.484375 0.125 0  11.484375 -0.125 0  9.078125 0.125 0  9.078125 -0.125 0  8.734375 0.125 0  8.734375 -0.125 0  8.390625 0.125 0  8.390625 -0.125 0  8.046875 0.125 0  8.046875 -0.125 0  7.703125 0.125 0  7.703125 -0.125 0  7.359375 0.125 0  7.359375 -0.125 0  7.015625 0.125 0  7.015625 -0.125 0  6.671875 0.125 0  6.671875 -0.125 0  11.140625 0.125 0  11.140625 -0.125 0  10.796875 0.125 0  10.796875 -0.125 0  10.453125 0.125 0  10.453125 -0.125 0  10.109375 0.125 0  10.109375 -0.125 0  9.765625 0.125 0  9.765625 -0.125 0  9.421875 0.125 0  9.421875 -0.125 0  3.046875 0.05859375 0  3.046875 -0.05859375 0  2.846431093850899 0.7350694856199397 0  2.640625 -0.05078125 0  2.640625 0.05078125 0  0.203125 0.99609375 0  6.362699038303388 0.6807243972366781 0  2.234375 0.04296875 0  2.234375 -0.04296875 0  11.581701212888 0.6822801732596659 0  11.35203598484848 0.6662326388888888 0  1.828125 0.03515625 0  1.828125 -0.03515625 0  5.984553033425814 0.6914815580202875 0  1.822525515412832 0.4475696738977717 0  1.41733060903937 0.5025442175645189 0  1.588893519464248 0.2357861358511414 0  3.654445727495178 0.7241715610932831 0  -0.2708370651139332 0.7990289667308481 0  1.421875 0.02734375 0  1.421875 -0.02734375 0  5.484375 0.89453125 0  2.633855454650776 0.460690271159621 0  2.40795634504651 0.2507007772874862 0  2.225403489025307 0.476130253335854 0  1.015625 -0.01953125 0  1.015625 0.01953125 0  3.227321013248274 0.265830895248878 0  3.445567521085816 0.4744107463092357 0  3.038321171612397 0.4840806912614364 0  0.609375 0.01171875 0  0.609375 -0.01171875 0  4.257720382725849 0.4888191036475296 0  4.047058936483319 0.2812008669921838 0  3.851174586896061 0.4920378211671812 0  0.609375 0.98828125 0  4.464694218296445 0.7031618514150944 0  4.671875 0.91015625 0  4.265625 0.91796875 0  3.453125 0.93359375 0  3.859375 0.92578125 0  2.640625 0.94921875 0  3.046875 0.94140625 0  2.234375 0.95703125 0  1.828125 0.96484375 0  1.421875 0.97265625 0  1.015625 0.98046875 0  5.484375 -0.10546875 0  4.060661963989729 0.6870321141431521 0  -2.34375 0 0  -2.34375 1 0  1.003521337202078 0.4664537109579014 0  3.646922073215719 0.2678295141073984 0  3.253141618048695 0.6711470624742265 0  0.3013894287350291 0.1773590807784885 0  -1.124347644480009 0.4398459561477482 0  2.831246172847781 0.248957659490205 0  2.446473427278441 0.6570274073729461 0  -2.198800970885971 0.1954869700666445 0  2.01591648071966 0.2304840455985115 0  0.827600060761903 0.2057214409193794 0  1.640609275971101 0.6442729681322822 0  -0.15625 0 0  6.483664772727272 0.3124999999999999 0  5.477125710212377 0.3518294601818938 0  11.41161533959385 0.3125 0  12 0.3125 0  11.04150966040615 0.3125 0  12 0.6875 0  1.198054295914707 0.2143210783083181 0  -1.40625 0 0  0.9109798103993655 0.8221220157670066 0  5.845812869360681 0.3162425406240469 0  0.4667569911039429 0.6726473502422988 0  0.4593425712678239 0.3353704711440587 0  8.211153274166278 0.6806358075271245 0  9.586153274166278 0.6806358075271245 0  6.835007346992159 0.6944141097550816 0  6.663707386363637 0.4925130208333334 0  10.96058238636364 0.680013020833333 0  -1.40625 1 0  -1.320649221029402 0.826171875 0  5.082724050007036 0.6788909168133963 0  -0.1275597151206816 0.375 0  0.7018834652202378 0.6003751687871122 0  -1.71875 0 0  5.523196914803937 0.7163232589905226 0  0.3602612407862962 0.5307539682539683 0  0.1786479052710517 0.5327459553507268 0  1.289006631999016 0.8051714473419221 0  -1.328125 0.156663781811377
[...]
<PointData  Vectors="f_503"> 
<DataArray  type="Float64"  Name="f_503"  NumberOfComponents="3" format="ascii">4.1173751810064743e-18 -6.2204616507768880e-07 0.0000000000000000e+00  2.0572288941406944e-01 -1.2240474934679596e-01 0.0000000000000000e+00  2.0572288941407843e-01 -1.2240474934679592e-01 0.0000000000000000e+00  1.9947484162404031e-01 -1.2240474934679563e-01 0.0000000000000000e+00  1.9947484162400622e-01 -1.2240471016629036e-01 0.0000000000000000e+00  -2.4992191160203098e-02 1.3283079346593709e-15 0.0000000000000000e+00  1.8073069825387511e-01 -1.2240474934679388e-01 0.0000000000000000e+00  1.8073069825386820e-01 -1.2240474934679405e-01 0.0000000000000000e+00  -2.4992191160207549e-02 1.5387405217578167e-15 0.0000000000000000e+00  -5.7838084445574615e-15 -3.0616709667164842e-17 0.0000000000000000e+00  9.9737420812006650e-02 -6.0026173896318966e-02 0.0000000000000000e+00  7.7869253546828443e-02 -8.5283749294824851e-02 0.0000000000000000e+00  1.0286144470702981e-01 -8.5283659858335956e-02 0.0000000000000000e+00  1.9947484162402321e-01 -1.2240474934679565e-01 0.0000000000000000e+00  1.8073069825386437e-01 -1.2240474934679434e-01 0.0000000000000000e+00  2.0572288941408323e-01 -1.2240474934679603e-01 0.0000000000000000e+00  4.9868710406003686e-02 -2.9719010538556551e-02 0.0000000000000000e+00  2.6438531193312558e-02 -4.8662145487971771e-02 0.0000000000000000e+00  5.1430722353515645e-02 -4.8662346546200365e-02 0.0000000000000000e+00  1.2929997590034159e-01 -1.0986496046761332e-01 0.0000000000000000e+00  1.4960613121800614e-01 -9.0921391105358060e-02 0.0000000000000000e+00  1.5429216706054708e-01 -1.0986441028695576e-01 0.0000000000000000e+00  1.9947484162402565e-01 -1.2240474934679554e-01 0.0000000000000000e+00  1.8073069825386870e-01 -1.2240474934679425e-01 0.0000000000000000e+00  2.0572288941407149e-01 -1.2240474934679600e-01 0.0000000000000000e+00  1.8073069825388050e-01 -1.2240474934679441e-01 0.0000000000000000e+00  1.9947484162403803e-01 -1.2240474934679556e-01 0.0000000000000000e+00  2.0572288941408426e-01 -1.2240474934679607e-01 0.0000000000000000e+00  -2.4992191160205776e-02 1.6179621741831280e-15 0.0000000000000000e+00  -2.5993707210241278e-15 1.4235045856180322e-17 0.0000000000000000e+00  2.4934355203001725e-02 -1.4785979340291975e-02 0.0000000000000000e+00  7.2317001655512237e-04 -2.5836546091026705e-02 0.0000000000000000e+00  2.5715361176757663e-02 -2.5836973967427717e-02 0.0000000000000000e+00  5.2153892370070815e-02 -6.8478123904490484e-02 0.0000000000000000e+00  7.4803065609004543e-02 -4.4799088839241191e-02 0.0000000000000000e+00  7.7146083530273371e-02 -6.8478032795247695e-02 0.0000000000000000e+00  1.2467177601500520e-01 -7.5400269721478716e-02 0.0000000000000000e+00  1.0358461472358460e-01 -9.9079240251792114e-02 0.0000000000000000e+00  1.2857680588378417e-01 -9.9079103614114539e-02 0.0000000000000000e+00  1.7454048642101075e-01 -1.0658954165743180e-01 0.0000000000000000e+00  1.5501533707710277e-01 -1.1763982910522099e-01 0.0000000000000000e+00  1.8000752823730135e-01 -1.1764010502152863e-01 0.0000000000000000e+00  -3.4403501913555391e-15 -4.0173152142260905e-17 0.0000000000000000e+00  -2.4992191160207244e-02 1.8626682633821463e-15 0.0000000000000000e+00  -1.3416623244941469e-15 1.0728543429622971e-17 0.0000000000000000e+00  -2.4992191160204430e-02 1.0882638233039188e-15 0.0000000000000000e+00  1.8073069825387245e-01 -1.2240474934679421e-01 0.0000000000000000e+00  1.9947484162402127e-01 -1.2240474934679559e-01 0.0000000000000000e+00  2.0572288941407674e-01 -1.2240474934679593e-01 0.0000000000000000e+00  1.9947484162402560e-01 -1.2240474934679567e-01 0.0000000000000000e+00  1.8073069825386712e-01 -1.2240474934679403e-01 0.0000000000000000e+00  2.0572288941407516e-01 -1.2240474934679607e-01 0.0000000000000000e+00  1.9947484162403378e-01 -1.2240474934679549e-01 0.0000000000000000e+00  1.8073069825388419e-01 -1.2240474934679420e-01 0.0000000000000000e+00  2.0572288941407671e-01 -1.2240474934679599e-01 0.0000000000000000e+00  1.9947484162403017e-01 -1.2240474934679549e-01 0.0000000000000000e+00  1.8073069825387897e-01 -1.2240474934679464e-01 0.0000000000000000e+00  2.0572288941407432e-01 -1.2240474934679607e-01 0.0000000000000000e+00  -1.2496095580101551e-02 9.8335652218434964e-16 0.0000000000000000e+00  2.5205537779235222e-02 -2.9476921320089767e-02 0.0000000000000000e+00  5.0539761461983274e-02 -4.7673083684050453e-02 0.0000000000000000e+00  7.5873981842002947e-02 -6.4441175963173433e-02 0.0000000000000000e+00  1.0120814069800718e-01 -7.9777708901793906e-02 0.0000000000000000e+00  -1.2496095580105573e-02 1.1506855947781585e-15 0.0000000000000000e+00  -1.2496095580108724e-02 1.9238542961175456e-15 0.0000000000000000e+00  -1.2496095580105107e-02 6.7266726721224883e-16 0.0000000000000000e+00  1.2654102206497778e-01 -9.3679182080675633e-02 0.0000000000000000e+00  1.6207330881950799e-01 -9.8737092225036349e-02 0.0000000000000000e+00  1.4215765648872056e-01 -1.1412865949791345e-01 0.0000000000000000e+00  1.6714984764892116e-01 -1.1412889915743082e-01 0.0000000000000000e+00  1.6787301766547943e-01 -1.2039909278851542e-01 0.0000000000000000e+00  1.8700766402251021e-01 -1.1447874197600652e-01 0.0000000000000000e+00  1.9286520882568062e-01 -1.2039911884535971e-01 0.0000000000000000e+00  1.9010256892581873e-01 -1.2240466990339602e-01 0.0000000000000000e+00  1.9003941463121779e-01 -1.2237971071203740e-01 0.0000000000000000e+00  1.9009919902059247e-01 -1.2240333806661144e-01 0.0000000000000000e+00  1.8898716768820503e-01 -1.2196379021938213e-01 0.0000000000000000e+00  1.9010276930112793e-01 -1.2240474909470030e-01 0.0000000000000000e+00  1.9010276990310057e-01 -1.2240474933261550e-01 0.0000000000000000e+00  1.9010276993895378e-01 -1.2240474934679492e-01 0.0000000000000000e+00  1.9010275860887352e-01 -1.2240474486896732e-01 0.0000000000000000e+00  4.6665533209460696e-03 -1.3711725497829426e-02 0.0000000000000000e+00  -1.1129335126030097e-02 8.4018500653546595e-16 0.0000000000000000e+00  -1.1129335126037971e-02 2.3257749278504647e-15 0.0000000000000000e+00  1.4552841136849132e-01 -1.0316102783966381e-01 0.0000000000000000e+00  1.7050403317276269e-01 -1.1442676891114197e-01 0.0000000000000000e+00  1.3713895361650236e-01 -8.3142453145880493e-02 0.0000000000000000e+00  1.4143448647216980e-01 -1.0484808628993880e-01 0.0000000000000000e+00  1.1571912529540827e-01 -9.2557717056507172e-02 0.0000000000000000e+00  1.1220459841350505e-01 -6.7694845029971154e-02 0.0000000000000000e+00  8.7270243210503279e-02 -5.2394252119029393e-02 0.0000000000000000e+00  9.0003764118649479e-02 -7.7257526939232296e-02 0.0000000000000000e+00  6.4288402941893877e-02 -5.8946465140186637e-02 0.0000000000000000e+00  6.2335888007504156e-02 -3.7240669097182433e-02 0.0000000000000000e+00  3.7401532804501786e-02 -2.2234109604737744e-02 0.0000000000000000e+00  3.8573041765135985e-02 -3.7625998330507969e-02 0.0000000000000000e+00  1.1425661949171051e-01 -8.6482147357905673e-02 0.0000000000000000e+00  8.9292729248154179e-02 -7.1426860780852100e-02 0.0000000000000000e+00  3.9329438960420522e-02 -3.7591641037919225e-02 0.0000000000000000e+00  1.5714027680471732e-01 -1.0968788835411199e-01 0.0000000000000000e+00  6.4316513425396890e-02 -5.5087608214802429e-02 0.0000000000000000e+00  1.2467177601500370e-02 -7.3746233005227563e-03 0.0000000000000000e+00  1.2857680588379149e-02 -1.3294485012488763e-02 0.0000000000000000e+00  -1.2134510571824141e-02 -1.3294724022483648e-02 0.0000000000000000e+00  1.1644229531196301e-01 -1.0484845093579212e-01 0.0000000000000000e+00  9.0726934135210324e-02 -9.2557701182962665e-02 0.0000000000000000e+00  6.5011572958448685e-02 -7.7256965143481571e-02 0.0000000000000000e+00  3.9296211781690994e-02 -5.8946501467201373e-02 0.0000000000000000e+00  1.3580850604933662e-02 -3.7625387600852621e-02 0.0000000000000000e+00  1.8073069825387272e-01 -1.2240474934679342e-01 0.0000000000000000e+00  1.9010276993490050e-01 -1.2240474934517802e-01 0.0000000000000000e+00  1.8522966986020467e-01 -1.2047362498164449e-01 0.0000000000000000e+00  2.0572288941407330e-01 -1.2240474934679600e-01 0.0000000000000000e+00  1.9947484162402368e-01 -1.2240474934679585e-01 0.0000000000000000e+00  2.0572288941408129e-01 -1.2240474934679606e-01 0.0000000000000000e+00  1.9947484162402684e-01 -1.2240474934679561e-01 0.0000000000000000e+00  2.0572288941407860e-01 -1.2240474934679599e-01 0.0000000000000000e+00  1.9947484162402002e-01 -1.2240474934679568e-01 0.0000000000000000e+00  2.0572288941407146e-01 -1.2240474934679599e-01 0.0000000000000000e+00  1.9947484162401607e-01 -1.2240474934679570e-01 0.0000000000000000e+00  2.0572288941407624e-01 -1.2240474934679611e-01 0.0000000000000000e+00  1.9947484162401921e-01 -1.2240474934679546e-01 0.0000000000000000e+00  2.0572288941407943e-01 -1.2240474934679592e-01 0.0000000000000000e+00  1.9947484162402132e-01 -1.2240474934679568e-01 0.0000000000000000e+00  2.0572288941407274e-01 -1.2240474934679593e-01 0.0000000000000000e+00  1.9947484162402487e-01 -1.2240474934679545e-01 0.0000000000000000e+00  2.0572288941408320e-01 -1.2240474934679600e-01 0.0000000000000000e+00  1.9947484162404280e-01 -1.2240474934679549e-01 0.0000000000000000e+00  -2.4992191160203816e-02 5.4924161908133926e-16 0.0000000000000000e+00  -2.4992191160207667e-02 1.8729349346940696e-15 0.0000000000000000e+00  1.9085118664869050e-01 -1.2240473063396674e-01 0.0000000000000000e+00  1.8073069825387320e-01 -1.2240474934679429e-01 0.0000000000000000e+00  1.8935430321923044e-01 -1.2240474829490801e-01 0.0000000000000000e+00  1.9085123384701558e-01 -1.2240474928745852e-01 0.0000000000000000e+00  1.8073069825385585e-01 -1.2240474934679570e-01 0.0000000000000000e+00  1.8073069825387722e-01 -1.2240474934679378e-01 0.0000000000000000e+00  1.8073069825386848e-01 -1.2240474934679557e-01 0.0000000000000000e+00  1.8908984430771641e-01 -1.2230044836030129e-01 0.0000000000000000e+00  1.9083631293337952e-01 -1.2239885165490912e-01 0.0000000000000000e+00  1.8073069825386767e-01 -1.2240474934679395e-01 0.0000000000000000e+00  1.8935346696244887e-01 -1.2240441779604808e-01 0.0000000000000000e+00  1.8073069825387786e-01 -1.2240474934679478e-01 0.0000000000000000e+00  1.8073069825387669e-01 -1.2240474934679402e-01 0.0000000000000000e+00  1.1565877806703890e-02 -2.3351524804810658e-02 0.0000000000000000e+00  -4.5448152044553093e-15 1.4602245654653570e-17 0.0000000000000000e+00  -5.8619662592045548e-16 3.0515424503366348e-17 0.0000000000000000e+00  -6.2480477900507788e-03 4.9370325182417618e-16 0.0000000000000000e+00  -8.5760131313307522e-03 -7.6660331180950468e-03 0.0000000000000000e+00  2.5069946493116637e-02 -2.1560626399176816e-02 0.0000000000000000e+00  2.7396775171772081e-02 -3.8808437465100501e-02 0.0000000000000000e+00  -1.6303499702168534e-02 1.7348950548510494e-15 0.0000000000000000e+00  -8.1517498510838057e-03 1.3376140775312558e-15 0.0000000000000000e+00  -3.1512862520426854e-15 2.1624771942308824e-17 0.0000000000000000e+00  -2.4992191160205315e-02 1.5002511299855237e-15 0.0000000000000000e+00  -1.8341827422345704e-15 2.3804355549906283e-17 0.0000000000000000e+00  -2.4992191160204430e-02 1.1763766867254865e-15 0.0000000000000000e+00  3.8489146359788742e-02 -4.8527903942861293e-02 0.0000000000000000e+00  5.2468359870553372e-02 -5.7742766793315303e-02 0.0000000000000000e+00  1.3862572896390418e-01 -9.6049082863909174e-02 0.0000000000000000e+00  -7.9074723426034209e-04 -6.3983844928994209e-03 0.0000000000000000e+00  7.7542943177660015e-02 -7.4653272340932275e-02 0.0000000000000000e+00  6.4013937671225804e-02 -6.6639808080373508e-02 0.0000000000000000e+00  1.0261962779477259e-01 -8.9471865762215219e-02 0.0000000000000000e+00  8.9538708169063980e-02 -8.2525722784280289e-02 0.0000000000000000e+00  -1.8744143370153930e-02 6.5931777051962844e-16 0.0000000000000000e+00  -6.2480477900542101e-03 1.0723105050355995e-15 0.0000000000000000e+00  -1.8744143370152309e-02 1.3563296928152303e-15 0.0000000000000000e+00  -6.2480477900559630e-03 5.3814430228116073e-16 0.0000000000000000e+00  -1.7135688106246244e-02 2.2362799086146776e-15 0.0000000000000000e+00  -7.1266795105362733e-03 1.8459344176429234e-15 0.0000000000000000e+00  -1.8744143370158731e-02 2.4936623199261152e-15 0.0000000000000000e+00  1.7662033825101831e-01 -1.1845578250251548e-01 0.0000000000000000e+00  1.1506305750720758e-01 -9.6182062731916568e-02 0.0000000000000000e+00  1.2791899982168758e-01 -1.0207182672712697e-01 0.0000000000000000e+00  5.0835627729486230e-02 -3.7785171723046795e-02 0.0000000000000000e+00  7.5795596455982703e-02 -5.3946175670633402e-02 0.0000000000000000e+00  3.6492577314590137e-02 -2.9370090605395562e-02 0.0000000000000000e+00  -1.8610767349987428e-02 2.0934961069584211e-15 0.0000000000000000e+00  1.0075013371343251e-01 -6.9584239204894704e-02 0.0000000000000000e+00  6.1850807083661481e-02 -4.5994320354744211e-02 0.0000000000000000e+00  1.2569822977544159e-01 -8.4633407437946645e-02 0.0000000000000000e+00  8.7213111526965217e-02 -6.1965632331917271e-02 0.0000000000000000e+00  1.1258073715186701e-01 -7.7279620619077657e-02 0.0000000000000000e+00  5.3044301451474966e-04 -1.8209897775311842e-02 0.0000000000000000e+00  1.3456164468022964e-02 -1.2676492243563257e-02 0.0000000000000000e+00  1.8539830283709624e-01 -1.1805150010468839e-01 0.0000000000000000e+00  -1.4870051238007881e-02 1.5924932656314608e-15 0.0000000000000000e+00  -1.8934772289385070e-02 3.1603973602763099e-15 0.0000000000000000e+00  1.9282001987842537e-01 -1.2240474934248827e-01 0.0000000000000000e+00  1.9282001988822209e-01 -1.2240474934635416e-01 0.0000000000000000e+00  -6.6068399377223188e-03 1.1334195330800722e-15 0.0000000000000000e+00  1.8579096606650611e-01 -1.2240474932347190e-01 0.0000000000000000e+00  1.9478851383400844e-01 -1.2240463396252564e-01 0.0000000000000000e+00  1.9478757393098073e-01 -1.2240426246119371e-01 0.0000000000000000e+00  1.9469677283751685e-01 -1.2236816211514667e-01 0.0000000000000000e+00  1.9440038171164747e-01 -1.2224746947641284e-01 0.0000000000000000e+00  1.9478880485517658e-01 -1.2240474898069370e-01 0.0000000000000000e+00  1.9478880187317232e-01 -1.2240474780216115e-01 0.0000000000000000e+00  1.9312215946569136e-01 -1.2168134794394582e-01 0.0000000000000000e+00  1.8391432394248117e-01 -1.2173581441341289e-01 0.0000000000000000e+00  1.8639202725731283e-01 -1.2240474934648087e-01 0.0000000000000000e+00  1.8579094749948380e-01 -1.2240474198551768e-01 0.0000000000000000e+00  1.8579089766520387e-01 -1.2240472229036420e-01 0.0000000000000000e+00  1.8579096590823865e-01 -1.2240474926092031e-01 0.0000000000000000e+00  1.8541673408407974e-01 -1.2240474934191717e-01 0.0000000000000000e+00  1.8578510114354141e-01 -1.2240243221023350e-01 0.0000000000000000e+00  1.8576941308243547e-01 -1.2239624177851741e-01 0.0000000000000000e+00  -9.3720716850822314e-03 1.2981259603298462e-15 0.0000000000000000e+00  -6.6345387599417976e-03 9.8587503496648787e-16 0.0000000000000000e+00  1.4873394437378052e-02 -1.8428589258470771e-02 0.0000000000000000e+00  -1.8744143370156945e-02 1.6832251554876973e-15 0.0000000000000000e+00  -6.2404260056820697e-03 1.0000339828721474e-15 0.0000000000000000e+00  1.9514260606769238e-01 -1.2239666220556214e-01 0.0000000000000000e+00  1.9515819860650477e-01 -1.2240283613160534e-01 0.0000000000000000e+00  1.9516303760504242e-01 -1.2240474926555359e-01 0.0000000000000000e+00  1.9478880573276908e-01 -1.2240474932753663e-01 0.0000000000000000e+00  1.9516297299179647e-01 -1.2240472372931034e-01 0.0000000000000000e+00  1.9516302245883793e-01 -1.2240474327954394e-01 0.0000000000000000e+00  1.8541673322699728e-01 -1.2240474900318360e-01 0.0000000000000000e+00  1.8504249842136480e-01 -1.2240474790584414e-01 0.0000000000000000e+00  1.8533051560978739e-01 -1.2237086356348863e-01 0.0000000000000000e+00  1.8468060922020535e-01 -1.2226547118547393e-01 0.0000000000000000e+00  1.8541646005416382e-01 -1.2240464104318562e-01 0.0000000000000000e+00  1.8504135274647901e-01 -1.2240429515742150e-01 0.0000000000000000e+00  1.6272022724665589e-02 -3.0915590000032182e-02 0.0000000000000000e+00  1.5581363128957731e-01 -1.0373269884292836e-01 0.0000000000000000e+00  1.5583972001874763e-01 -9.4824641961092915e-02 0.0000000000000000e+00  1.6072100735473269e-01 -1.1209083692881103e-01 0.0000000000000000e+00  1.6730889993774711e-01 -1.0968520517427865e-01 0.0000000000000000e+00  -1.8141143623205475e-02 1.9143565979501323e-15 0.0000000000000000e+00  -1.9208203083248075e-02 9.6892343384951239e-16 0.0000000000000000e+00  6.2335888007503011e-03 -3.6827135184044472e-03 0.0000000000000000e+00  6.4288402941893256e-03 -6.7411965270761810e-03 0.0000000000000000e+00  1.9324125282325366e-01 -1.1843712933859470e-01 0.0000000000000000e+00  1.9929404911987408e-01 -1.2149638766805262e-01 0.0000000000000000e+00  -5.1253517027806308e-03 1.2885428796140164e-15 0.0000000000000000e+00  -1.3086589174339726e-02 9.7012715248774344e-16 0.0000000000000000e+00  -5.5646675630158628e-03 7.0794456527877219e-16 0.0000000000000000e+00  -1.3101685874638469e-02 2.3717668498927564e-15 0.0000000000000000e+00  1.6830689762025977e-01 -1.0265872888095159e-01 0.0000000000000000e+00  1.8643636853148932e-01 -1.1911403334695629e-01 0.0000000000000000e+00  1.8077407522175754e-01 -1.1052954336991405e-01 0.0000000000000000e+00  1.3609302887532468e-01 -1.0457475881273245e-01 0.0000000000000000e+00  1.4757872412985040e-01 -1.0896984661859571e-01 0.0000000000000000e+00  1.4756754319513493e-01 -9.7208458452074209e-02 0.0000000000000000e+00  1.4337254241725808e-01 -8.7027317506748691e-02 0.0000000000000000e+00  1.4786332676635983e-01 -1.0745100724326269e-01 0.0000000000000000e+00  1.3572881619453336e-01 -1.1209102121950698e-01 0.0000000000000000e+00  1.3500564617797781e-01 -1.0205764170348761e-01 0.0000000000000000e+00  1.3090536481575263e-01 -7.9266761952291612e-02 0.0000000000000000e+00  1.7917900212706223e-01 -1.1488863434339436e-01 0.0000000000000000e+00  1.6144417737128863e-01 -1.1911367833508117e-01 0.0000000000000000e+00  1.6107558948599579e-01 -1.1406346055573315e-01 0.0000000000000000e+00  1.7430185795966754e-01 -1.2149668028465381e-01 0.0000000000000000e+00  1.1843818721425402e-01 -7.1542950654965298e-02 0.0000000000000000e+00  1.2214796558959756e-01 -9.5912085423424734e-02 0.0000000000000000e+00  1.3479495660725213e-01 -9.0107854744901836e-02 0.0000000000000000e+00  4.5649239438538491e-02 -5.3041361686004630e-02 0.0000000000000000e+00  1.0597100961275734e-01 -6.3855914078997558e-02 0.0000000000000000e+00  1.0929028500122027e-01 -8.9014783471632164e-02 0.0000000000000000e+00  1.9947484162403148e-01 -1.2240474934679557e-01 0.0000000000000000e+00  2.0572288941407454e-01 -1.2240474934679613e-01 0.0000000000000000e+00  1.9947484162403270e-01 -1.2240474934679547e-01 0.0000000000000000e+00  2.0572288941407571e-01 -1.2240474934679600e-01 0.0000000000000000e+00  1.9947484162401391e-01 -1.2240474934679547e-01 0.0000000000000000e+00  2.0572288941407882e-01 -1.2240474934679592e-01 0.0000000000000000e+00  1.9947484162402856e-01 -1.2240474934679556e-01 0.0000000000000000e+00  2.0572288941408298e-01 -1.2240474934679597e-01 0.0000000000000000e+00  1.9947484162402984e-01 -1.2240474934679554e-01 0.0000000000000000e+00  2.0572288941407002e-01 -1.2240474934679589e-01 0.0000000000000000e+00  1.9947484162403106e-01 -1.2240474934679571e-01 0.0000000000000000e+00  2.0572288941407330e-01 -1.2240474934679606e-01 0.0000000000000000e+00  1.9947484162402895e-01 -1.2240474934679553e-01 0.0000000000000000e+00  2.0572288941407640e-01 -1.2240474934679593e-01 0.0000000000000000e+00  1.9947484162402265e-01 -1.2240474934679565e-01 0.0000000000000000e+00  2.0572288941406996e-01 -1.2240474934679593e-01 0.0000000000000000e+00  1.9947484162402704e-01 -1.2240474934679585e-01 0.0000000000000000e+00  2.0572288941407260e-01 -1.2240474934679597e-01 0.0000000000000000e+00  1.9947484162401724e-01 -1.2240474934679561e-01 0.0000000000000000e+00  2.0572288941407132e-01 -1.2240474934679584e-01 0.0000000000000000e+00  1.994