<?xml version="1.0"?>
<VTKFile type="UnstructuredGrid"  version="0.1"  >
<UnstructuredGrid>
<Piece  NumberOfPoints="6614" NumberOfCells="12519">
<Points>
<DataArray  type="Float64"  NumberOfComponents="3"  format="ascii">0 0 0  6.5 -0.125 0  12 -0.125 0  12 0.125 0  6.5 0.125 0  0 1 0  12 0.875 0  6.5 0.875 0  -2.5 1 0  -2.5 0 0  3.25 0.0625 0  3.25 0.9375 0  3.25 -0.0625 0  9.25 0.125 0  9.25 0.875 0  9.25 -0.125 0  1.625 0.03125 0  1.625 0.96875 0  1.625 -0.03125 0  4.875 0.90625 0  4.875 0.09375 0  4.875 -0.09375 0  7.875 0.125 0  7.875 0.875 0  7.875 -0.125 0  10.625 0.875 0  10.625 0.125 0  10.625 -0.125 0  -1.25 1 0  -1.25 0 0  0.8125 0.015625 0  0.8125 0.984375 0  0.8125 -0.015625 0  2.4375 0.953125 0  2.4375 0.046875 0  2.4375 -0.046875 0  4.0625 0.078125 0  4.0625 0.921875 0  4.0625 -0.078125 0  5.6875 0.109375 0  5.6875 0.890625 0  5.6875 -0.109375 0  -1.875 0 0  -1.875 1 0  -0.625 0 0  -0.625 1 0  8.5625 0.875 0  8.5625 0.125 0  8.5625 -0.125 0  7.1875 0.125 0  7.1875 0.875 0  7.1875 -0.125 0  11.3125 0.125 0  11.3125 0.875 0  11.3125 -0.125 0  9.9375 0.125 0  9.9375 0.875 0  9.9375 -0.125 0  0 0.5 0  1.209585336538462 0.5 0  2.022385817307693 0.5 0  2.835186298076923 0.5 0  3.647986778846154 0.5 0  -0.9375 0.5 0  -1.5625 0.5 0  -2.5 0.5 0  4.460787259615385 0.5 0  5.28125 0.1015625 0  5.28125 0.8984375 0  5.28125 -0.1015625 0  6.09375 0.8828125 0  6.09375 0.1171875 0  6.09375 -0.1171875 0  8.90625 0.5 0  7.53125 0.5 0  8.21875 0.5 0  6.84375 0.5 0  10.28125 0.5 0  10.96875 0.5 0  12 0.5 0  9.59375 0.5 0  0.5506310096153846 0.5 0  -0.46875 0.4453125 0  -2.03125 0.4453125 0  5.070387620192307 0.5 0  5.883188100961538 0.5 0  4.46875 0.0859375 0  4.46875 -0.0859375 0  3.65625 -0.0703125 0  3.65625 0.0703125 0  2.84375 0.0546875 0  2.84375 -0.0546875 0  2.03125 -0.0390625 0  2.03125 0.0390625 0  1.21875 0.0234375 0  1.21875 -0.0234375 0  4.054387019230769 0.4847310450995098 0  3.241586538461538 0.4699247074852732 0  1.615985576923077 0.4417102219320143 0  5.476787860576923 0.53993893765092 0  2.428786057692307 0.4556005042418 0  0.40625 0.0078125 0  0.40625 -0.0078125 0  0.40625 0.9921875 0  4.46875 0.9140625 0  3.65625 0.9296875 0  2.84375 0.9453125 0  2.03125 0.9609375 0  1.21875 0.9765625 0  11.65625 0.875 0  11.484375 0.5 0  6.467329545454546 0.5 0  9.59375 -0.125 0  9.59375 0.125 0  10.28125 -0.125 0  10.28125 0.125 0  10.96875 -0.125 0  10.96875 0.125 0  6.84375 -0.125 0  6.84375 0.125 0  7.53125 -0.125 0  7.53125 0.125 0  8.21875 -0.125 0  8.21875 0.125 0  8.90625 -0.125 0  8.90625 0.125 0  11.65625 -0.125 0  11.65625 0.125 0  -0.3125 1 0  -2.1875 1 0  9.25 0.4700520833333333 0  9.59375 0.875 0  9.9375 0.5299479166666666 0  10.625 0.4700520833333333 0  10.96875 0.875 0  10.28125 0.875 0  6.84375 0.875 0  7.1875 0.5299479166666666 0  7.875 0.4700520833333333 0  8.21875 0.875 0  8.5625 0.5299479166666666 0  7.53125 0.875 0  8.90625 0.875 0  0.8801081730769231 0.63484883039911 0  -2.1875 0 0  -0.3125 0 0  0 0.25 0  0.2753155048076923 0.6865079365079365 0  1.011042668269231 0.2578125 0  1.446827777824054 0.7082004557951647 0  -1.25 0.65234375 0  -1.284375 0.326171875 0  -1.5625 0 0  -1.5625 1 0  -0.9375 0 0  -0.9375 1 0  1.823692908653846 0.7343749999999999 0  2.250687166802934 0.7075583934794667 0  4.765587439903847 0.3964836665810265 0  0.2753155048076923 0.375 0  3.054829110674799 0.707148526758953 0  2.636343149038462 0.7265625000000001 0  3.859250973615127 0.7069998487229827 0  3.448993389423077 0.7187500000000001 0  -0.78125 0.75 0  -0.78125 0.25 0  0 0.75 0  -2.5 0.25 0  -2.240776699029126 0.6856416868932038 0  -1.775 0.28515625 0  -1.71875 0.75 0  6.175258823208043 0.5886645441611957 0  4.261643629807693 0.7109374999999998 0  4.667893629807693 0.7031250000000002 0  1.824167367109634 0.2409531602990362 0  2.636686615214766 0.2555772588321514 0  1.38325552388875 0.2649704395311445 0  -0.46875 0.7446632922535211 0  3.449201796915416 0.2704128103983777 0  2.203202991433102 0.2729232708226779 0  4.261712450328808 0.2854838329019752 0  3.023283383806745 0.2808786583609286 0  3.843540099517909 0.288837436732593 0  0.6331235396611878 0.7683768130429148 0  0.6054339511832376 0.2166532884716425 0  6.256771799991964 0.3317884692185022 0  -0.2486470253814554 0.5949878961267605 0  -1.984670937186905 0.7576275392581842 0  11.2265625 0.3912760416666667 0  11.7421875 0.3912760416666667 0  -1.036405127827206 0.2643561701079966 0  10.78053977272727 0.6725260416666666 0  8.734375 0.3125 0  8.390625 0.3125 0  7.359375 0.3125 0  7.015625 0.3125 0  10.109375 0.3125 0  9.765625 0.3125 0  6.671875 0.3125 0  6.655539772727273 0.6725260416666669 0  11.78555345556989 0.6484760842723984 0  9.405539772727273 0.6725260416666666 0  9.094460227272727 0.6725260416666666 0  10.46946022727273 0.6725260416666666 0  11.140625 0.6875 0  8.030539772727273 0.6725260416666666 0  7.719460227272728 0.6725260416666666 0  -2.277018229166667 0.375 0  -0.2686215753424658 0.2654644691780822 0  0.7924173055676504 0.3931430043056919 0  -2.5 0.75 0  -1.525008560462654 0.2496950333675564 0  7.703125 0.2975260416666667 0  8.046875 0.2975260416666666 0  10.453125 0.2975260416666667 0  10.81190567787247 0.3125 0  9.078125 0.2975260416666667 0  9.421875 0.2975260416666666 0  10.12440567787247 0.6875 0  9.765625 0.7024739583333333 0  7.374405677872475 0.6875 0  7.015625 0.7024739583333333 0  8.749405677872474 0.6875 0  8.390625 0.7024739583333333 0  1.115551444307063 0.7401777158454262 0  5.28922999544003 0.360801083570939 0  5.078125 0.09765625 0  5.078125 -0.09765625 0  5.664767392260801 0.3650917682044265 0  -1.479229041916168 0.7258724738023952 0  -1.029665898617512 0.7685681883640553 0  0.203125 0.00390625 0  0.203125 -0.00390625 0  6.296875 0.12109375 0  6.296875 -0.12109375 0  -2.00322265625 0.205078125 0  -0.6971783980582524 0.5236271237864077 0  -0.546875 0.22265625 0  -1.801855111236272 0.5242311804773303 0  5.484375 0.10546875 0  5.890625 -0.11328125 0  5.890625 0.11328125 0  4.903633313301282 0.6699100680171115 0  5.260369462255295 0.6544725809557483 0  4.972693810096154 0.296875 0  4.671875 0.08984375 0  4.671875 -0.08984375 0  5.078125 0.90234375 0  4.265625 -0.08203125 0  4.265625 0.08203125 0  6.03259461594712 0.3328645427790781 0  5.890625 0.88671875 0  5.692656615207549 0.6488796598294736 0  6.296875 0.87890625 0  3.859375 0.07421875 0  3.859375 -0.07421875 0  4.561082497482947 0.2948209397629855 0  2.036725213111611 0.7135654082038703 0  3.453125 0.06640625 0  3.453125 -0.06640625 0  11.828125 0.125 0  11.828125 -0.125 0  11.484375 0.125 0  11.484375 -0.125 0  9.078125 0.125 0  9.078125 -0.125 0  8.734375 0.125 0  8.734375 -0.125 0  8.390625 0.125 0  8.390625 -0.125 0  8.046875 0.125 0  8.046875 -0.125 0  7.703125 0.125 0  7.703125 -0.125 0  7.359375 0.125 0  7.359375 -0.125 0  7.015625 0.125 0  7.015625 -0.125 0  6.671875 0.125 0  6.671875 -0.125 0  11.140625 0.125 0  11.140625 -0.125 0  10.796875 0.125 0  10.796875 -0.125 0  10.453125 0.125 0  10.453125 -0.125 0  10.109375 0.125 0  10.109375 -0.125 0  9.765625 0.125 0  9.765625 -0.125 0  9.421875 0.125 0  9.421875 -0.125 0  3.046875 0.05859375 0  3.046875 -0.05859375 0  2.846431093850899 0.7350694856199397 0  2.640625 -0.05078125 0  2.640625 0.05078125 0  0.203125 0.99609375 0  6.362699038303388 0.6807243972366781 0  2.234375 0.04296875 0  2.234375 -0.04296875 0  11.581701212888 0.6822801732596659 0  11.35203598484848 0.6662326388888888 0  1.828125 0.03515625 0  1.828125 -0.03515625 0  5.984553033425814 0.6914815580202875 0  1.822525515412832 0.4475696738977717 0  1.41733060903937 0.5025442175645189 0  1.588893519464248 0.2357861358511414 0  3.654445727495178 0.7241715610932831 0  -0.2708370651139332 0.7990289667308481 0  1.421875 0.02734375 0  1.421875 -0.02734375 0  5.484375 0.89453125 0  2.633855454650776 0.460690271159621 0  2.40795634504651 0.2507007772874862 0  2.225403489025307 0.476130253335854 0  1.015625 -0.01953125 0  1.015625 0.01953125 0  3.227321013248274 0.265830895248878 0  3.445567521085816 0.4744107463092357 0  3.038321171612397 0.4840806912614364 0  0.609375 0.01171875 0  0.609375 -0.01171875 0  4.257720382725849 0.4888191036475296 0  4.047058936483319 0.2812008669921838 0  3.851174586896061 0.4920378211671812 0  0.609375 0.98828125 0  4.464694218296445 0.7031618514150944 0  4.671875 0.91015625 0  4.265625 0.91796875 0  3.453125 0.93359375 0  3.859375 0.92578125 0  2.640625 0.94921875 0  3.046875 0.94140625 0  2.234375 0.95703125 0  1.828125 0.96484375 0  1.421875 0.97265625 0  1.015625 0.98046875 0  5.484375 -0.10546875 0  4.060661963989729 0.6870321141431521 0  -2.34375 0 0  -2.34375 1 0  1.003521337202078 0.4664537109579014 0  3.646922073215719 0.2678295141073984 0  3.253141618048695 0.6711470624742265 0  0.3013894287350291 0.1773590807784885 0  -1.124347644480009 0.4398459561477482 0  2.831246172847781 0.248957659490205 0  2.446473427278441 0.6570274073729461 0  -2.198800970885971 0.1954869700666445 0  2.01591648071966 0.2304840455985115 0  0.827600060761903 0.2057214409193794 0  1.640609275971101 0.6442729681322822 0  -0.15625 0 0  6.483664772727272 0.3124999999999999 0  5.477125710212377 0.3518294601818938 0  11.41161533959385 0.3125 0  12 0.3125 0  11.04150966040615 0.3125 0  12 0.6875 0  1.198054295914707 0.2143210783083181 0  -1.40625 0 0  0.9109798103993655 0.8221220157670066 0  5.845812869360681 0.3162425406240469 0  0.4667569911039429 0.6726473502422988 0  0.4593425712678239 0.3353704711440587 0  8.211153274166278 0.6806358075271245 0  9.586153274166278 0.6806358075271245 0  6.835007346992159 0.6944141097550816 0  6.663707386363637 0.4925130208333334 0  10.96058238636364 0.680013020833333 0  -1.40625 1 0  -1.320649221029402 0.826171875 0  5.082724050007036 0.6788909168133963 0  -0.1275597151206816 0.375 0  0.7018834652202378 0.6003751687871122 0  -1.71875 0 0  5.523196914803937 0.7163232589905226 0  0.3602612407862962 0.5307539682539683 0  0.1786479052710517 0.5327459553507268 0  1.289006631999016 0.8051714473419221 0  -1.328125 0.156663781811377
[...]
<PointData  Vectors="displacement"> 
<DataArray  type="Float64"  Name="displacement"  NumberOfComponents="3" format="ascii">0.0000000000000000e+00 0.0000000000000000e+00 0.0000000000000000e+00  -4.5453236649202977e-02 -3.1449757884541640e-01 0.0000000000000000e+00  -4.9199077225754943e-02 -5.1390522130969174e-01 0.0000000000000000e+00  -3.0768832275968627e-03 -5.1474950395559760e-01 0.0000000000000000e+00  5.0685306041273063e-04 -3.1526388614771156e-01 0.0000000000000000e+00  0.0000000000000000e+00 0.0000000000000000e+00 0.0000000000000000e+00  -1.4611672557199995e-02 -5.1184370581509175e-01 0.0000000000000000e+00  -1.0800194484060961e-02 -3.1237864848136210e-01 0.0000000000000000e+00  2.7211736673140471e-02 -3.6870467178640182e-01 0.0000000000000000e+00  2.7211736673140471e-02 -3.6870467178640182e-01 0.0000000000000000e+00  -1.9074983884975153e-03 -1.7114408058389385e-01 0.0000000000000000e+00  -4.8668625021004589e-03 -1.6693262112125551e-01 0.0000000000000000e+00  -2.3742690490684594e-02 -1.7073113971159476e-01 0.0000000000000000e+00  -1.2686881071821607e-03 -4.1504098967588104e-01 0.0000000000000000e+00  -1.2803506560168340e-02 -4.1213521068274017e-01 0.0000000000000000e+00  -4.7390904117768036e-02 -4.1419669948618787e-01 0.0000000000000000e+00  -1.3235142668792160e-03 -8.8139103561358609e-02 0.0000000000000000e+00  -2.0623039813403654e-03 -8.3412688366512180e-02 0.0000000000000000e+00  -1.1698619460195724e-02 -8.7941103427330011e-02 0.0000000000000000e+00  -7.8825006524339235e-03 -2.4456027372624334e-01 0.0000000000000000e+00  -1.2578154369356940e-03 -2.4812162466307047e-01 0.0000000000000000e+00  -3.5198736699695053e-02 -2.4752011505888377e-01 0.0000000000000000e+00  -3.6446440242286554e-04 -3.6518831640059446e-01 0.0000000000000000e+00  -1.1898712505344007e-02 -3.6227866373188461e-01 0.0000000000000000e+00  -4.6485938942036530e-02 -3.6434441249254612e-01 0.0000000000000000e+00  -1.3707576439478224e-02 -4.6198945025473986e-01 0.0000000000000000e+00  -2.1727871783191219e-03 -4.6489524811372379e-01 0.0000000000000000e+00  -4.8294981154416751e-02 -4.6405096546291097e-01 0.0000000000000000e+00  1.3605868336570223e-02 -1.8435233589320091e-01 0.0000000000000000e+00  1.3605868336570223e-02 -1.8435233589320091e-01 0.0000000000000000e+00  -6.0625459928539374e-04 -4.5512350830684778e-02 0.0000000000000000e+00  -8.6870967749411317e-04 -4.0462867471420035e-02 0.0000000000000000e+00  -5.6390291518239018e-03 -4.5414037391628803e-02 0.0000000000000000e+00  -3.4280100023927566e-03 -1.2568501346824895e-01 0.0000000000000000e+00  -1.7681193873673529e-03 -1.3017245149012499e-01 0.0000000000000000e+00  -1.7761997730437611e-02 -1.2986624900184890e-01 0.0000000000000000e+00  -1.7366127544823310e-03 -2.1061725883848462e-01 0.0000000000000000e+00  -6.3596492679010210e-03 -2.0671192977041247e-01 0.0000000000000000e+00  -2.9576541106067222e-02 -2.1010561835187638e-01 0.0000000000000000e+00  -4.8677187371882075e-04 -2.8315173668105115e-01 0.0000000000000000e+00  -9.4039113638067339e-03 -2.7996164355743652e-01 0.0000000000000000e+00  -4.0557215392625787e-02 -2.8248649619191213e-01 0.0000000000000000e+00  2.0408802504855342e-02 -2.7652850383980138e-01 0.0000000000000000e+00  2.0408802504855342e-02 -2.7652850383980138e-01 0.0000000000000000e+00  6.8029341682851003e-03 -9.2176167946600468e-02 0.0000000000000000e+00  6.8029341682851003e-03 -9.2176167946600468e-02 0.0000000000000000e+00  -1.2351272373867532e-02 -3.8720811022285123e-01 0.0000000000000000e+00  -8.1667624341718909e-04 -3.9011376380101448e-01 0.0000000000000000e+00  -4.6938750355542000e-02 -3.8926950929094867e-01 0.0000000000000000e+00  8.9621890884116710e-05 -3.4024993653736513e-01 0.0000000000000000e+00  -1.1471695676491943e-02 -3.3737801621663466e-01 0.0000000000000000e+00  -4.6054980131510090e-02 -3.3939767118041125e-01 0.0000000000000000e+00  -2.6248351872239341e-03 -4.8982237610596202e-01 0.0000000000000000e+00  -1.4159624545531817e-02 -4.8691657797026311e-01 0.0000000000000000e+00  -4.8747029206695970e-02 -4.8897809345411336e-01 0.0000000000000000e+00  -1.7207391508845702e-03 -4.3996812173758798e-01 0.0000000000000000e+00  -1.3255526782636067e-02 -4.3706231983559723e-01 0.0000000000000000e+00  -4.7842931628924480e-02 -4.3912383971592761e-01 0.0000000000000000e+00  0.0000000000000000e+00 0.0000000000000000e+00 0.0000000000000000e+00  -1.2250577077593144e-03 -6.3981853053794363e-02 0.0000000000000000e+00  -2.1805934465683051e-03 -1.0654997530291313e-01 0.0000000000000000e+00  -3.0438183492708746e-03 -1.4828044072097166e-01 0.0000000000000000e+00  -3.7868375296662639e-03 -1.8875627615739196e-01 0.0000000000000000e+00  1.0204401252427685e-02 -1.3826425191990099e-01 0.0000000000000000e+00  1.7007335420712848e-02 -2.3044041986650182e-01 0.0000000000000000e+00  2.7211736673140467e-02 -3.6870467178640187e-01 0.0000000000000000e+00  -4.3945012234842089e-03 -2.2751867860088706e-01 0.0000000000000000e+00  -9.0583295649992394e-04 -2.6597274540521154e-01 0.0000000000000000e+00  -8.6426079284776820e-03 -2.6259666697339190e-01 0.0000000000000000e+00  -3.7909312471049693e-02 -2.6534122603145532e-01 0.0000000000000000e+00  -1.0162093154796459e-02 -2.9655211227606471e-01 0.0000000000000000e+00  -7.9094131045526663e-06 -2.9961949431597701e-01 0.0000000000000000e+00  -4.3132457024972745e-02 -2.9893681084538759e-01 0.0000000000000000e+00  -6.8100597856776048e-03 -4.0112455519192269e-01 0.0000000000000000e+00  -5.9019689697156078e-03 -3.5126692904598444e-01 0.0000000000000000e+00  -6.3583326651287858e-03 -3.7619708836697768e-01 0.0000000000000000e+00  -5.4718380777459318e-03 -3.2633840429347116e-01 0.0000000000000000e+00  -7.7141581748175645e-03 -4.5097878519200246e-01 0.0000000000000000e+00  -8.1662058211707488e-03 -4.7590591313218517e-01 0.0000000000000000e+00  -8.8442778949834149e-03 -5.1329660488548257e-01 0.0000000000000000e+00  -7.2621068769567762e-03 -4.2605165475511508e-01 0.0000000000000000e+00  -1.6896607031962723e-04 -2.9130244731899763e-02 0.0000000000000000e+00  5.1022006262138415e-03 -6.9132125959950511e-02 0.0000000000000000e+00  2.2109536046926725e-02 -2.9957254582645254e-01 0.0000000000000000e+00  -4.7539402111991293e-03 -2.5517545894720461e-01 0.0000000000000000e+00  -5.0882646907940690e-03 -2.8972975494371317e-01 0.0000000000000000e+00  -1.5352877836090238e-03 -2.2964822386432232e-01 0.0000000000000000e+00  -3.2419121938279581e-02 -2.2908852031494548e-01 0.0000000000000000e+00  -2.6681827001568868e-02 -1.9063191655099429e-01 0.0000000000000000e+00  -1.8597953378878271e-03 -1.9109508538751749e-01 0.0000000000000000e+00  -1.8763258138839191e-03 -1.5081584771347717e-01 0.0000000000000000e+00  -2.0766084739935308e-02 -1.5045784706010859e-01 0.0000000000000000e+00  -1.4738476157739596e-02 -1.0900962659642624e-01 0.0000000000000000e+00  -1.5843865678651084e-03 -1.0926171664329309e-01 0.0000000000000000e+00  -9.7889972195778423e-04 -6.6873268697368204e-02 0.0000000000000000e+00  -8.6420477616125334e-03 -6.6728307752439930e-02 0.0000000000000000e+00  -4.0236195276990858e-03 -2.0845062546668036e-01 0.0000000000000000e+00  -3.3298366720458765e-03 -1.6884820748151649e-01 0.0000000000000000e+00  -1.6673620635147977e-03 -8.5640220041147450e-02 0.0000000000000000e+00  -5.3623830359112367e-03 -2.7264848958686055e-01 0.0000000000000000e+00  -2.5446467483529237e-03 -1.2776405249636624e-01 0.0000000000000000e+00  -4.8948244900985009e-04 -2.3729014984917005e-02 0.0000000000000000e+00  -2.9885768421258523e-03 -2.3671462286981807e-02 0.0000000000000000e+00  -7.7852424052961440e-04 -1.9363096381896403e-02 0.0000000000000000e+00  -7.1201417494730574e-03 -2.2591232990469529e-01 0.0000000000000000e+00  -5.6076561737442047e-03 -1.8703151227504816e-01 0.0000000000000000e+00  -4.1378493589700020e-03 -1.4646278864334161e-01 0.0000000000000000e+00  -2.7377123290369199e-03 -1.0465316348933348e-01 0.0000000000000000e+00  -1.3957294888287928e-03 -6.1984924959486022e-02 0.0000000000000000e+00  -1.4385648541454858e-02 -4.9938014188491703e-01 0.0000000000000000e+00  -8.5052418608505369e-03 -4.9460125899280127e-01 0.0000000000000000e+00  -5.3085853335520239e-03 -3.1251891970648715e-01 0.0000000000000000e+00  -4.7616910468031001e-02 -4.2666027732586320e-01 0.0000000000000000e+00  -1.4947141857592926e-03 -4.2750456035708140e-01 0.0000000000000000e+00  -4.8068956602009064e-02 -4.5158740185791335e-01 0.0000000000000000e+00  -1.9467632358465608e-03 -4.5243168430379993e-01 0.0000000000000000e+00  -4.8521005226843938e-02 -4.7651452947219397e-01 0.0000000000000000e+00  -2.3988111690541850e-03 -4.7735881214008546e-01 0.0000000000000000e+00  -4.5822786076705660e-02 -3.2689081112542245e-01 0.0000000000000000e+00  3.0743722756530062e-04 -3.2774453151813904e-01 0.0000000000000000e+00  -4.6264664445107975e-02 -3.5187994207387413e-01 0.0000000000000000e+00  -1.3749297633865439e-04 -3.5272553644604754e-01 0.0000000000000000e+00  -4.6712184770857104e-02 -3.7680647089279623e-01 0.0000000000000000e+00  -5.9069595648828215e-04 -3.7765050447478232e-01 0.0000000000000000e+00  -4.7164899642535639e-02 -4.0173308140895481e-01 0.0000000000000000e+00  -1.0426682486094645e-03 -4.0257738096653417e-01 0.0000000000000000e+00  -4.8973053209076300e-02 -5.0144165738759705e-01 0.0000000000000000e+00  -2.8508592083802326e-03 -5.0228594003331728e-01 0.0000000000000000e+00  3.4014670841425597e-03 -4.6088083973300227e-02 0.0000000000000000e+00  2.3810269588997908e-02 -3.2261658781310160e-01 0.0000000000000000e+00  -6.5754827002307082e-03 -4.1370412475401219e-01 0.0000000000000000e+00  -1.3029507772540739e-02 -4.2459875530275304e-01 0.0000000000000000e+00  -7.9487245570461895e-03 -4.3839918991176902e-01 0.0000000000000000e+00  -7.4795913440138008e-03 -4.6355837937251643e-01 0.0000000000000000e+00  -1.3933600569124512e-02 -4.7445301411159907e-01 0.0000000000000000e+00  -1.3481551688056396e-02 -4.4952588582179731e-01 0.0000000000000000e+00  -1.1219772867061802e-02 -3.2494478605579885e-01 0.0000000000000000e+00  -6.1339045509599859e-03 -3.3869069693237308e-01 0.0000000000000000e+00  -5.6711989681024937e-03 -3.6384852714453381e-01 0.0000000000000000e+00  -1.2124571932888260e-02 -3.7474385144964789e-01 0.0000000000000000e+00  -7.0447267845260642e-03 -3.8854497025178220e-01 0.0000000000000000e+00  -1.1680070494571551e-02 -3.4981790372656490e-01 0.0000000000000000e+00  -1.2577494858205814e-02 -3.9967170607283747e-01 0.0000000000000000e+00  -7.9909693263049693e-04 -4.5846688857880867e-02 0.0000000000000000e+00  2.3810269588997908e-02 -3.2261658781310160e-01 0.0000000000000000e+00  3.4014670841425597e-03 -4.6088083973300227e-02 0.0000000000000000e+00  0.0000000000000000e+00 0.0000000000000000e+00 0.0000000000000000e+00  6.5499402777926752e-05 -1.4058975939201523e-02 0.0000000000000000e+00  -8.8140966164302638e-04 -5.4769324967101324e-02 0.0000000000000000e+00  -1.6376517181255262e-03 -7.5407086468904774e-02 0.0000000000000000e+00  1.3605868336570246e-02 -1.8435233589320130e-01 0.0000000000000000e+00  1.3980029715825914e-02 -1.8942202513026421e-01 0.0000000000000000e+00  1.7007335420712782e-02 -2.3044041986650113e-01 0.0000000000000000e+00  1.7007335420712782e-02 -2.3044041986650113e-01 0.0000000000000000e+00  1.0204401252427666e-02 -1.3826425191990069e-01 0.0000000000000000e+00  1.0204401252427666e-02 -1.3826425191990069e-01 0.0000000000000000e+00  -2.1842105798769492e-03 -9.5018846283527011e-02 0.0000000000000000e+00  -2.7502994723423613e-03 -1.1732808266178810e-01 0.0000000000000000e+00  -3.7738118023878642e-03 -2.4196634279271759e-01 0.0000000000000000e+00  2.3554288802576405e-04 -1.4930829048210918e-02 0.0000000000000000e+00  -3.8614421774934020e-03 -1.5833804736827015e-01 0.0000000000000000e+00  -3.3236139073178545e-03 -1.3703585908629987e-01 0.0000000000000000e+00  -4.9593567009868040e-03 -1.9802211560487104e-01 0.0000000000000000e+00  -4.4445583015611878e-03 -1.7791860138747215e-01 0.0000000000000000e+00  8.5036677103563791e-03 -1.1522020993325056e-01 0.0000000000000000e+00  8.5036677103564069e-03 -1.1522020993325083e-01 0.0000000000000000e+00  0.0000000000000000e+00 0.0000000000000000e+00 0.0000000000000000e+00  2.7211736673140481e-02 -3.6870467178640182e-01 0.0000000000000000e+00  2.4390170190915841e-02 -3.3047393494486083e-01 0.0000000000000000e+00  1.9320333037929814e-02 -2.6178031696834636e-01 0.0000000000000000e+00  1.8708068962784111e-02 -2.5348446185315182e-01 0.0000000000000000e+00  -6.3899947563831085e-03 -3.0100945601709417e-01 0.0000000000000000e+00  -5.5254330715288390e-03 -2.1721454554581254e-01 0.0000000000000000e+00  -6.0159544498151682e-03 -2.3613149190481109e-01 0.0000000000000000e+00  -1.6843454235459395e-03 -9.7516318305248109e-02 0.0000000000000000e+00  -2.3003208341172560e-03 -1.3937045791927721e-01 0.0000000000000000e+00  -1.2908601687234194e-03 -7.4314730712111851e-02 0.0000000000000000e+00  5.1022006262138320e-03 -6.9132125959950358e-02 0.0000000000000000e+00  -2.7169103766883436e-03 -1.8006871668671301e-01 0.0000000000000000e+00  -2.0357543091065128e-03 -1.1703703924274665e-01 0.0000000000000000e+00  -2.9346576767862588e-03 -2.1916289188501153e-01 0.0000000000000000e+00  -2.5790298668630363e-03 -1.5882045591286983e-01 0.0000000000000000e+00  -2.9021342505517367e-03 -1.9922207628680366e-01 0.0000000000000000e+00  -5.0717428722011997e-04 -3.2113857812669323e-02 0.0000000000000000e+00  -3.7690767500817382e-04 -3.3506464697466272e-02 0.0000000000000000e+00  -2.8444516563431933e-03 -3.0520676834246580e-01 0.0000000000000000e+00  2.7064469516959368e-03 -3.6670927953573906e-02 0.0000000000000000e+00  2.1602537170226043e-02 -2.9270297859980399e-01 0.0000000000000000e+00  -6.6635798943584434e-03 -4.8567482588619909e-01 0.0000000000000000e+00  -7.0026159404007636e-03 -5.0437017177512289e-01 0.0000000000000000e+00  1.1280953370050582e-02 -1.5285096499730980e-01 0.0000000000000000e+00  -1.0695855102033386e-02 -4.6841341999581776e-01 0.0000000000000000e+00  -3.8133792692825025e-03 -3.9561915901179984e-01 0.0000000000000000e+00  -3.5875684382871338e-03 -3.8315557076715517e-01 0.0000000000000000e+00  -2.9014697140506873e-03 -3.4576139880332363e-01 0.0000000000000000e+00  -2.6748103743799790e-03 -3.3327908269456602e-01 0.0000000000000000e+00  -4.7174490703514975e-03 -4.4547345291565266e-01 0.0000000000000000e+00  -4.4914241044091523e-03 -4.3300988962983616e-01 0.0000000000000000e+00  -2.5180494576298811e-03 -3.2076449450050865e-01 0.0000000000000000e+00  -7.9860521916701871e-03 -3.1884041553955866e-01 0.0000000000000000e+00  -1.0986794524653563e-02 -5.0494602379241349e-01 0.0000000000000000e+00  -9.7917589428834616e-03 -4.1855916256495285e-01 0.0000000000000000e+00  -9.5872225439991316e-03 -4.0728018041060388e-01 0.0000000000000000e+00  -1.0491312707013006e-02 -4.5713440967369501e-01 0.0000000000000000e+00  -1.1162915187770446e-02 -4.8141124555464693e-01 0.0000000000000000e+00  -8.8874149001731077e-03 -3.6870345025241347e-01 0.0000000000000000e+00  -8.6825655961758168e-03 -3.5742238347047361e-01 0.0000000000000000e+00  2.4784648180809617e-02 -3.3581890353462024e-01 0.0000000000000000e+00  2.9238638291773354e-03 -3.9616811908556135e-02 0.0000000000000000e+00  -6.1044309062670786e-04 -4.2513034739789318e-02 0.0000000000000000e+00  2.7211736673140481e-02 -3.6870467178640187e-01 0.0000000000000000e+00  1.6599252548637942e-02 -2.2491111230273481e-01 0.0000000000000000e+00  -2.9036565263170807e-03 -3.5828677805749054e-01 0.0000000000000000e+00  -3.1313789208122608e-03 -3.7075019759783795e-01 0.0000000000000000e+00  -4.7131773949850601e-03 -4.5799503174776873e-01 0.0000000000000000e+00  -5.1793795236416583e-03 -4.7094555756607709e-01 0.0000000000000000e+00  -3.8090653900368214e-03 -4.0814076671872562e-01 0.0000000000000000e+00  -4.0350983117553810e-03 -4.2060434080523523e-01 0.0000000000000000e+00  -1.0494725936038210e-02 -4.4456552987510811e-01 0.0000000000000000e+00  -1.0489113700992885e-02 -4.3149897097324919e-01 0.0000000000000000e+00  -8.6881823549682120e-03 -3.4485775331181040e-01 0.0000000000000000e+00  -8.6921601586924854e-03 -3.3181841104700022e-01 0.0000000000000000e+00  -9.5906474208998990e-03 -3.9471136756476671e-01 0.0000000000000000e+00  -9.5849486897122121e-03 -3.8164462455270820e-01 0.0000000000000000e+00  -1.1807469842726650e-03 -5.7758153359310199e-02 0.0000000000000000e+00  -3.4933135335423345e-03 -2.6533362309525954e-01 0.0000000000000000e+00  -1.0911575768209874e-03 -2.5713031179788298e-01 0.0000000000000000e+00  -3.6562966747675549e-02 -2.5651235828550040e-01 0.0000000000000000e+00  -3.4752325134632112e-03 -2.8127008644523094e-01 0.0000000000000000e+00  1.6100956467153885e-02 -2.1815946335864619e-01 0.0000000000000000e+00  1.1207598917796907e-02 -1.5185705087976820e-01 0.0000000000000000e+00  -5.6633413199550550e-04 -1.2323564371743929e-02 0.0000000000000000e+00  -1.8209153394263772e-03 -1.2292901516251956e-02 0.0000000000000000e+00  2.4072955012238243e-04 -3.0756139847674169e-01 0.0000000000000000e+00  -4.4334809427441634e-02 -3.0685790128370427e-01 0.0000000000000000e+00  2.1804466967817657e-02 -2.9543902079509682e-01 0.0000000000000000e+00  7.5885739928652374e-03 -1.0282117297305514e-01 0.0000000000000000e+00  5.9525673972494839e-03 -8.0654146953275552e-02 0.0000000000000000e+00  1.9612642724045525e-02 -2.6574095895800898e-01 0.0000000000000000e+00  -7.0462495841166280e-04 -2.7464814523115522e-01 0.0000000000000000e+00  -4.1857305277541418e-02 -2.9080388489633568e-01 0.0000000000000000e+00  -2.5326008320362145e-04 -2.9147676345265555e-01 0.0000000000000000e+00  -6.0549305621201265e-03 -2.4698199297516973e-01 0.0000000000000000e+00  -6.3241984255720746e-03 -2.6283250057039664e-01 0.0000000000000000e+00  -2.9518807812158893e-03 -2.5168959527704782e-01 0.0000000000000000e+00  -1.4067813810961932e-03 -2.3895829328125323e-01 0.0000000000000000e+00  -3.3818691698047167e-02 -2.3837858762281297e-01 0.0000000000000000e+00  -8.2635413755055270e-03 -2.5366017513666339e-01 0.0000000000000000e+00  -3.1005473368550678e-02 -2.1966020561858102e-01 0.0000000000000000e+00  -1.6445673669945658e-03 -2.2019501201868857e-01 0.0000000000000000e+00  -2.9518200345118408e-03 -2.9639954089005310e-01 0.0000000000000000e+00  -9.7910659113074078e-03 -2.8836203447444986e-01 0.0000000000000000e+00  -6.7191903238337913e-03 -2.8127107434468240e-01 0.0000000000000000e+00  -1.0512210553513255e-02 -3.0455140920093193e-01 0.0000000000000000e+00  -1.8081832688973489e-03 -2.0091546918901143e-01 0.0000000000000000e+00  -2.8135893980254414e-02 -2.0042598841347009e-01 0.0000000000000000e+00  -2.9918630011407195e-03 -2.3305381902574507e-01 0.0000000000000000e+00  -2.4615737121348137e-03 -1.0621576540730393e-01 0.0000000000000000e+00  -1.8938202319708592e-03 -1.8116993101529999e-01 0.0000000000000000e+00  -2.5216947736404455e-02 -1.8073156602383764e-01 0.0000000000000000e+00  -2.9638712182176669e-03 -5.0851772199438072e-01 0.0000000000000000e+00  -4.9086065216813191e-02 -5.0767343934888276e-01 0.0000000000000000e+00  -2.7378471980513321e-03 -4.9605415807153708e-01 0.0000000000000000e+00  -4.8860041204699410e-02 -4.9520987542405237e-01 0.0000000000000000e+00  -1.1556764749155169e-03 -4.0880919169214136e-01 0.0000000000000000e+00  -4.7277905761557333e-02 -4.0796489581013151e-01 0.0000000000000000e+00  -9.2966809160525661e-04 -3.9634556340861382e-01 0.0000000000000000e+00  -4.7051860721490153e-02 -3.9550127235263766e-01 0.0000000000000000e+00  -7.0369221956650063e-04 -3.8388204350636557e-01 0.0000000000000000e+00  -4.6825525496608469e-02 -3.8303787387136623e-01 0.0000000000000000e+00  -4.7765144376446354e-04 -3.7141925826288669e-01 0.0000000000000000e+00  -4.6598854526125492e-02 -3.7057536502231203e-01 0.0000000000000000e+00  -2.5110508094533805e-04 -3.5895739580986674e-01 0.0000000000000000e+00  -4.6374174446953499e-02 -3.5811306042958663e-01 0.0000000000000000e+00  -2.3696127319415527e-05 -3.4649065275820567e-01 0.0000000000000000e+00  -4.6158501968059915e-02 -3.4564240542364066e-01 0.0000000000000000e+00  2.0123734708214669e-04 -3.3400080333482401e-01 0.00000000000000