<?xml version="1.0"?>
<VTKFile type="UnstructuredGrid"  version="0.1"  >
<UnstructuredGrid>
<Piece  NumberOfPoints="3073" NumberOfCells="5739">
<Points>
<DataArray  type="Float64"  NumberOfComponents="3"  format="ascii">0 0 0  6.5 -0.125 0  12 -0.125 0  12 0.125 0  6.5 0.125 0  0 1 0  12 0.875 0  6.5 0.875 0  -2.5 1 0  -2.5 0 0  3.25 0.0625 0  3.25 0.9375 0  3.25 -0.0625 0  9.25 0.125 0  9.25 0.875 0  9.25 -0.125 0  1.625 0.03125 0  1.625 0.96875 0  1.625 -0.03125 0  4.875 0.90625 0  4.875 0.09375 0  4.875 -0.09375 0  7.875 0.125 0  7.875 0.875 0  7.875 -0.125 0  10.625 0.875 0  10.625 0.125 0  10.625 -0.125 0  -1.25 1 0  -1.25 0 0  0.8125 0.015625 0  0.8125 0.984375 0  0.8125 -0.015625 0  2.4375 0.953125 0  2.4375 0.046875 0  2.4375 -0.046875 0  4.0625 0.078125 0  4.0625 0.921875 0  4.0625 -0.078125 0  5.6875 0.109375 0  5.6875 0.890625 0  5.6875 -0.109375 0  -1.875 0 0  -1.875 1 0  -0.625 0 0  -0.625 1 0  8.5625 0.875 0  8.5625 0.125 0  8.5625 -0.125 0  7.1875 0.125 0  7.1875 0.875 0  7.1875 -0.125 0  11.3125 0.125 0  11.3125 0.875 0  11.3125 -0.125 0  9.9375 0.125 0  9.9375 0.875 0  9.9375 -0.125 0  0 0.5 0  1.209585336538462 0.5 0  2.022385817307693 0.5 0  2.835186298076923 0.5 0  3.647986778846154 0.5 0  -0.9375 0.5 0  -1.5625 0.5 0  -2.5 0.5 0  4.460787259615385 0.5 0  5.28125 0.1015625 0  5.28125 0.8984375 0  5.28125 -0.1015625 0  6.09375 0.8828125 0  6.09375 0.1171875 0  6.09375 -0.1171875 0  8.90625 0.5 0  7.53125 0.5 0  8.21875 0.5 0  6.84375 0.5 0  10.28125 0.5 0  10.96875 0.5 0  12 0.5 0  9.59375 0.5 0  0.5506310096153846 0.5 0  -0.46875 0.4453125 0  -2.03125 0.4453125 0  5.070387620192307 0.5 0  5.883188100961538 0.5 0  4.46875 0.0859375 0  4.46875 -0.0859375 0  3.65625 -0.0703125 0  3.65625 0.0703125 0  2.84375 0.0546875 0  2.84375 -0.0546875 0  2.03125 -0.0390625 0  2.03125 0.0390625 0  1.21875 0.0234375 0  1.21875 -0.0234375 0  4.054387019230769 0.4847310450995098 0  3.241586538461538 0.4699247074852732 0  1.615985576923077 0.4417102219320143 0  5.476787860576923 0.53993893765092 0  2.428786057692307 0.4556005042418 0  0.40625 0.0078125 0  0.40625 -0.0078125 0  0.40625 0.9921875 0  4.46875 0.9140625 0  3.65625 0.9296875 0  2.84375 0.9453125 0  2.03125 0.9609375 0  1.21875 0.9765625 0  11.65625 0.875 0  11.484375 0.5 0  6.467329545454546 0.5 0  9.59375 -0.125 0  9.59375 0.125 0  10.28125 -0.125 0  10.28125 0.125 0  10.96875 -0.125 0  10.96875 0.125 0  6.84375 -0.125 0  6.84375 0.125 0  7.53125 -0.125 0  7.53125 0.125 0  8.21875 -0.125 0  8.21875 0.125 0  8.90625 -0.125 0  8.90625 0.125 0  11.65625 -0.125 0  11.65625 0.125 0  -0.3125 1 0  -2.1875 1 0  9.25 0.4700520833333333 0  9.59375 0.875 0  9.9375 0.5299479166666666 0  10.625 0.4700520833333333 0  10.96875 0.875 0  10.28125 0.875 0  6.84375 0.875 0  7.1875 0.5299479166666666 0  7.875 0.4700520833333333 0  8.21875 0.875 0  8.5625 0.5299479166666666 0  7.53125 0.875 0  8.90625 0.875 0  0.8801081730769231 0.63484883039911 0  -2.1875 0 0  -0.3125 0 0  0 0.25 0  0.2753155048076923 0.6865079365079365 0  1.011042668269231 0.2578125 0  1.446827777824054 0.7082004557951647 0  -1.25 0.65234375 0  -1.284375 0.326171875 0  -1.5625 0 0  -1.5625 1 0  -0.9375 0 0  -0.9375 1 0  1.823692908653846 0.7343749999999999 0  2.250687166802934 0.7075583934794667 0  4.765587439903847 0.3964836665810265 0  0.2753155048076923 0.375 0  3.054829110674799 0.707148526758953 0  2.636343149038462 0.7265625000000001 0  3.859250973615127 0.7069998487229827 0  3.448993389423077 0.7187500000000001 0  -0.78125 0.75 0  -0.78125 0.25 0  0 0.75 0  -2.5 0.25 0  -2.240776699029126 0.6856416868932038 0  -1.775 0.28515625 0  -1.71875 0.75 0  6.175258823208043 0.5886645441611957 0  4.261643629807693 0.7109374999999998 0  4.667893629807693 0.7031250000000002 0  1.824167367109634 0.2409531602990362 0  2.636686615214766 0.2555772588321514 0  1.38325552388875 0.2649704395311445 0  -0.46875 0.7446632922535211 0  3.449201796915416 0.2704128103983777 0  2.203202991433102 0.2729232708226779 0  4.261712450328808 0.2854838329019752 0  3.023283383806745 0.2808786583609286 0  3.843540099517909 0.288837436732593 0  0.6331235396611878 0.7683768130429148 0  0.6054339511832376 0.2166532884716425 0  6.256771799991964 0.3317884692185022 0  -0.2486470253814554 0.5949878961267605 0  -1.984670937186905 0.7576275392581842 0  11.2265625 0.3912760416666667 0  11.7421875 0.3912760416666667 0  -1.036405127827206 0.2643561701079966 0  10.78053977272727 0.6725260416666666 0  8.734375 0.3125 0  8.390625 0.3125 0  7.359375 0.3125 0  7.015625 0.3125 0  10.109375 0.3125 0  9.765625 0.3125 0  6.671875 0.3125 0  6.655539772727273 0.6725260416666669 0  11.78555345556989 0.6484760842723984 0  9.405539772727273 0.6725260416666666 0  9.094460227272727 0.6725260416666666 0  10.46946022727273 0.6725260416666666 0  11.140625 0.6875 0  8.030539772727273 0.6725260416666666 0  7.719460227272728 0.6725260416666666 0  -2.277018229166667 0.375 0  -0.2686215753424658 0.2654644691780822 0  0.7924173055676504 0.3931430043056919 0  -2.5 0.75 0  -1.525008560462654 0.2496950333675564 0  10.12440567787247 0.6875 0  9.765625 0.7024739583333333 0  7.374405677872475 0.6875 0  7.015625 0.7024739583333333 0  8.749405677872474 0.6875 0  8.390625 0.7024739583333333 0  7.703125 0.2975260416666667 0  8.046875 0.2975260416666666 0  10.453125 0.2975260416666667 0  10.81190567787247 0.3125 0  9.078125 0.2975260416666667 0  9.421875 0.2975260416666666 0  1.115551444307063 0.7401777158454262 0  5.28922999544003 0.360801083570939 0  5.078125 0.09765625 0  5.078125 -0.09765625 0  5.664767392260801 0.3650917682044265 0  -1.479229041916168 0.7258724738023952 0  -1.029665898617512 0.7685681883640553 0  0.203125 0.00390625 0  0.203125 -0.00390625 0  6.296875 0.12109375 0  6.296875 -0.12109375 0  -2.00322265625 0.205078125 0  -0.6971783980582524 0.5236271237864077 0  -0.546875 0.22265625 0  -1.801855111236272 0.5242311804773303 0  5.484375 0.10546875 0  5.890625 -0.11328125 0  5.890625 0.11328125 0  4.903633313301282 0.6699100680171115 0  5.260369462255295 0.6544725809557483 0  4.972693810096154 0.296875 0  4.671875 0.08984375 0  4.671875 -0.08984375 0  5.078125 0.90234375 0  4.265625 -0.08203125 0  4.265625 0.08203125 0  6.03259461594712 0.3328645427790781 0  5.890625 0.88671875 0  5.692656615207549 0.6488796598294736 0  6.296875 0.87890625 0  3.859375 0.07421875 0  3.859375 -0.07421875 0  4.561082497482947 0.2948209397629855 0  2.036725213111611 0.7135654082038703 0  3.453125 0.06640625 0  3.453125 -0.06640625 0  11.828125 0.125 0  11.828125 -0.125 0  11.484375 0.125 0  11.484375 -0.125 0  9.078125 0.125 0  9.078125 -0.125 0  8.734375 0.125 0  8.734375 -0.125 0  8.390625 0.125 0  8.390625 -0.125 0  8.046875 0.125 0  8.046875 -0.125 0  7.703125 0.125 0  7.703125 -0.125 0  7.359375 0.125 0  7.359375 -0.125 0  7.015625 0.125 0  7.015625 -0.125 0  6.671875 0.125 0  6.671875 -0.125 0  11.140625 0.125 0  11.140625 -0.125 0  10.796875 0.125 0  10.796875 -0.125 0  10.453125 0.125 0  10.453125 -0.125 0  10.109375 0.125 0  10.109375 -0.125 0  9.765625 0.125 0  9.765625 -0.125 0  9.421875 0.125 0  9.421875 -0.125 0  3.046875 0.05859375 0  3.046875 -0.05859375 0  2.846431093850899 0.7350694856199397 0  2.640625 -0.05078125 0  2.640625 0.05078125 0  0.203125 0.99609375 0  6.362699038303388 0.6807243972366781 0  2.234375 0.04296875 0  2.234375 -0.04296875 0  11.581701212888 0.6822801732596659 0  11.35203598484848 0.6662326388888888 0  1.828125 0.03515625 0  1.828125 -0.03515625 0  5.984553033425814 0.6914815580202875 0  1.822525515412832 0.4475696738977717 0  1.41733060903937 0.5025442175645189 0  1.588893519464248 0.2357861358511414 0  3.654445727495178 0.7241715610932831 0  -0.2708370651139332 0.7990289667308481 0  1.421875 0.02734375 0  1.421875 -0.02734375 0  5.484375 0.89453125 0  2.633855454650776 0.460690271159621 0  2.40795634504651 0.2507007772874862 0  2.225403489025307 0.476130253335854 0  1.015625 -0.01953125 0  1.015625 0.01953125 0  3.227321013248274 0.265830895248878 0  3.445567521085816 0.4744107463092357 0  3.038321171612397 0.4840806912614364 0  0.609375 0.01171875 0  0.609375 -0.01171875 0  4.257720382725849 0.4888191036475296 0  4.047058936483319 0.2812008669921838 0  3.851174586896061 0.4920378211671812 0  0.609375 0.98828125 0  4.464694218296445 0.7031618514150944 0  4.671875 0.91015625 0  4.265625 0.91796875 0  3.453125 0.93359375 0  3.859375 0.92578125 0  2.640625 0.94921875 0  3.046875 0.94140625 0  2.234375 0.95703125 0  1.828125 0.96484375 0  1.421875 0.97265625 0  1.015625 0.98046875 0  5.484375 -0.10546875 0  4.060661963989729 0.6870321141431521 0  -2.34375 0 0  -2.34375 1 0  1.003521337202078 0.4664537109579014 0  3.646922073215719 0.2678295141073984 0  3.253141618048695 0.6711470624742265 0  0.3013894287350291 0.1773590807784885 0  -1.124347644480009 0.4398459561477482 0  2.831246172847781 0.248957659490205 0  2.446473427278441 0.6570274073729461 0  -2.198800970885971 0.1954869700666445 0  2.01591648071966 0.2304840455985115 0  0.827600060761903 0.2057214409193794 0  1.640609275971101 0.6442729681322822 0  -0.15625 0 0  6.483664772727272 0.3124999999999999 0  5.477125710212377 0.3518294601818938 0  11.41161533959385 0.3125 0  12 0.3125 0  11.04150966040615 0.3125 0  12 0.6875 0  1.198054295914707 0.2143210783083181 0  -1.40625 0 0  0.9109798103993655 0.8221220157670066 0  5.845812869360681 0.3162425406240469 0  0.4667569911039429 0.6726473502422988 0  0.4593425712678239 0.3353704711440587 0  8.211153274166278 0.6806358075271245 0  9.586153274166278 0.6806358075271245 0  6.835007346992159 0.6944141097550816 0  6.663707386363637 0.4925130208333334 0  10.96058238636364 0.680013020833333 0  -1.40625 1 0  -1.320649221029402 0.826171875 0  5.082724050007036 0.6788909168133963 0  -0.1275597151206816 0.375 0  0.7018834652202378 0.6003751687871122 0  -1.71875 0 0  5.523196914803937 0.7163232589905226 0  0.3602612407862962 0.5307539682539683 0  0.1786479052710517 0.5327459553507268 0  1.289006631999016 0.8051714473419221 0  -1.328125 0.1566637818113773
[...]
<PointData  Vectors="displacement"> 
<DataArray  type="Float64"  Name="displacement"  NumberOfComponents="3" format="ascii">0.0000000000000000e+00 0.0000000000000000e+00 0.0000000000000000e+00  -6.0923557541899494e-02 -3.4362982966472466e-01 0.0000000000000000e+00  -6.9217197564101676e-02 -6.4711228546805233e-01 0.0000000000000000e+00  -1.8381766255732533e-02 -6.4852776688732106e-01 0.0000000000000000e+00  -9.9795828860423375e-03 -3.4510280796171106e-01 0.0000000000000000e+00  0.0000000000000000e+00 0.0000000000000000e+00 0.0000000000000000e+00  -1.5646972850308628e-02 -6.4449788136024599e-01 0.0000000000000000e+00  -7.3978361925025205e-03 -3.4106705050718472e-01 0.0000000000000000e+00  2.7211736534392714e-02 -3.6870467168279014e-01 0.0000000000000000e+00  2.7211736534392714e-02 -3.6870467168279014e-01 0.0000000000000000e+00  -2.9470293805744360e-03 -1.7229848791444391e-01 0.0000000000000000e+00  -4.3352932468202409e-03 -1.6811911538060262e-01 0.0000000000000000e+00  -3.7604318269954029e-02 -1.7136408069742010e-01 0.0000000000000000e+00  -1.4192611039813107e-02 -4.9679505631073423e-01 0.0000000000000000e+00  -1.1457798237434518e-02 -4.9276515767350654e-01 0.0000000000000000e+00  -6.5028027965973068e-02 -4.9537958003185750e-01 0.0000000000000000e+00  -1.2867857373225712e-03 -8.8222220927410916e-02 0.0000000000000000e+00  -2.0276709688325195e-03 -8.3661214749821355e-02 0.0000000000000000e+00  -2.1166778238086048e-02 -8.7706132806789461e-02 0.0000000000000000e+00  -6.0630873271665135e-03 -2.5251841322998847e-01 0.0000000000000000e+00  -5.6807078031680010e-03 -2.5654920153471245e-01 0.0000000000000000e+00  -5.0520744647735462e-02 -2.5529453787961714e-01 0.0000000000000000e+00  -1.2098103488758954e-02 -4.2092767278192622e-01 0.0000000000000000e+00  -9.3636689400362887e-03 -4.1690025567078903e-01 0.0000000000000000e+00  -6.2933968226416170e-02 -4.1951192873906795e-01 0.0000000000000000e+00  -1.3552394232945280e-02 -5.6863152489366675e-01 0.0000000000000000e+00  -1.6287187591437813e-02 -5.7266141060785780e-01 0.0000000000000000e+00  -6.7122618917743279e-02 -5.7124592919329198e-01 0.0000000000000000e+00  1.3605868196407352e-02 -1.8435233578834095e-01 0.0000000000000000e+00  1.3605868196407352e-02 -1.8435233578834095e-01 0.0000000000000000e+00  -5.9620561137058051e-04 -4.5557462839462361e-02 0.0000000000000000e+00  -8.1747024296536120e-04 -4.0607661519865071e-02 0.0000000000000000e+00  -1.1196057836046738e-02 -4.5285523501445990e-02 0.0000000000000000e+00  -3.2513531695658811e-03 -1.2609400231566173e-01 0.0000000000000000e+00  -2.0274026288771285e-03 -1.3043648016277085e-01 0.0000000000000000e+00  -2.9907845242848171e-02 -1.2969572521679607e-01 0.0000000000000000e+00  -4.1420709973915360e-03 -2.1417010615849269e-01 0.0000000000000000e+00  -5.2688335808305543e-03 -2.1009647419968711e-01 0.0000000000000000e+00  -4.4430886671064984e-02 -2.1306679150428079e-01 0.0000000000000000e+00  -7.6197632796664609e-03 -3.0000311716175893e-01 0.0000000000000000e+00  -6.7415372991948335e-03 -2.9596082446481875e-01 0.0000000000000000e+00  -5.5964806677181261e-02 -2.9861341509334449e-01 0.0000000000000000e+00  2.0408802366160817e-02 -2.7652850373625376e-01 0.0000000000000000e+00  2.0408802366160817e-02 -2.7652850373625376e-01 0.0000000000000000e+00  6.8029340488632408e-03 -9.2176167861298258e-02 0.0000000000000000e+00  6.8029340488632408e-03 -9.2176167861298258e-02 0.0000000000000000e+00  -1.0410631482788042e-02 -4.5483196540933324e-01 0.0000000000000000e+00  -1.3145298013399875e-02 -4.5886194019600746e-01 0.0000000000000000e+00  -6.3980810029904869e-02 -4.5744643784506334e-01 0.0000000000000000e+00  -1.1052256434948587e-02 -3.8300189846313099e-01 0.0000000000000000e+00  -8.3002079185432176e-03 -3.7895029621599152e-01 0.0000000000000000e+00  -6.1873669591286949e-02 -3.8159182588161367e-01 0.0000000000000000e+00  -1.7334476934451993e-02 -6.1059458869992944e-01 0.0000000000000000e+00  -1.4599683509431355e-02 -6.0656470316868183e-01 0.0000000000000000e+00  -6.8169908228325984e-02 -6.0917910728497460e-01 0.0000000000000000e+00  -1.5239898247629387e-02 -5.3472823141973413e-01 0.0000000000000000e+00  -1.2505105994509283e-02 -5.3069834840711338e-01 0.0000000000000000e+00  -6.6075330540204258e-02 -5.3331274956515418e-01 0.0000000000000000e+00  0.0000000000000000e+00 0.0000000000000000e+00 0.0000000000000000e+00  -1.1926726190052306e-03 -6.4122438364642931e-02 0.0000000000000000e+00  -2.1610792219896170e-03 -1.0673176102843547e-01 0.0000000000000000e+00  -3.1359651832816643e-03 -1.4883402334498494e-01 0.0000000000000000e+00  -4.1494213342618746e-03 -1.9070808877145773e-01 0.0000000000000000e+00  1.0204401111513007e-02 -1.3826425181589597e-01 0.0000000000000000e+00  1.7007335282336920e-02 -2.3044041976332036e-01 0.0000000000000000e+00  2.7211736534378434e-02 -3.6870467168281068e-01 0.0000000000000000e+00  -5.2426037090112006e-03 -2.3279084039392181e-01 0.0000000000000000e+00  -6.5967369139339205e-03 -2.7810536644423239e-01 0.0000000000000000e+00  -6.4159200422568598e-03 -2.7407210332126430e-01 0.0000000000000000e+00  -5.3318839425798722e-02 -2.7678294628965067e-01 0.0000000000000000e+00  -7.0408929774807552e-03 -3.1828050401966496e-01 0.0000000000000000e+00  -8.7523123540884616e-03 -3.2230281226741875e-01 0.0000000000000000e+00  -5.8455449635961915e-02 -3.2084409332499658e-01 0.0000000000000000e+00  -1.2301566728824934e-02 -4.7581348971572218e-01 0.0000000000000000e+00  -1.0209306263994645e-02 -3.9994417060708265e-01 0.0000000000000000e+00  -1.1254068213209114e-02 -4.3788027945360319e-01 0.0000000000000000e+00  -9.1431537914376561e-03 -3.6192864580984685e-01 0.0000000000000000e+00  -1.4396145992689938e-02 -5.5167987866301893e-01 0.0000000000000000e+00  -1.5443435577077712e-02 -5.8961305682438270e-01 0.0000000000000000e+00  -1.7014369551451712e-02 -6.4651282412376387e-01 0.0000000000000000e+00  -1.3348858856151247e-02 -5.1374670124596700e-01 0.0000000000000000e+00  -1.4700877882779938e-04 -2.9192670174721186e-02 0.0000000000000000e+00  5.1022004484751237e-03 -6.9132125824193966e-02 0.0000000000000000e+00  2.2109535908102839e-02 -2.9957254572282255e-01 0.0000000000000000e+00  -6.1399999731081420e-03 -2.6481126009448408e-01 0.0000000000000000e+00  -7.4820312879438512e-03 -3.0858166301248735e-01 0.0000000000000000e+00  -4.8644796575725751e-03 -2.3526111043709025e-01 0.0000000000000000e+00  -4.7561372136700399e-02 -2.3408062207514549e-01 0.0000000000000000e+00  -4.1117175887407549e-02 -1.9218280525380668e-01 0.0000000000000000e+00  -3.5053908103593579e-03 -1.9320431337681568e-01 0.0000000000000000e+00  -2.4581073119451556e-03 -1.5139347331250314e-01 0.0000000000000000e+00  -3.3875042969157117e-02 -1.5055232500899615e-01 0.0000000000000000e+00  -2.5681182419442346e-02 -1.0875576625097524e-01 0.0000000000000000e+00  -1.6431381729798994e-03 -1.0938875119787048e-01 0.0000000000000000e+00  -9.3106471477532975e-04 -6.6943505081618393e-02 0.0000000000000000e+00  -1.6327516163099048e-02 -6.6551862035917217e-02 0.0000000000000000e+00  -4.6628121615687225e-03 -2.1176472055767553e-01 0.0000000000000000e+00  -3.5880441096364955e-03 -1.6991906990049344e-01 0.0000000000000000e+00  -1.6334111501050391e-03 -8.5783688094553237e-02 0.0000000000000000e+00  -6.7612201354876732e-03 -2.8630924164506372e-01 0.0000000000000000e+00  -2.5863580590240469e-03 -1.2804556053261265e-01 0.0000000000000000e+00  -4.8829039527981024e-04 -2.3730186781119118e-02 0.0000000000000000e+00  -5.9999466502106040e-03 -2.3575158725062249e-02 0.0000000000000000e+00  -7.3306334391012938e-04 -1.9431557745675156e-02 0.0000000000000000e+00  -5.6815374926537134e-03 -2.3121706864327657e-01 0.0000000000000000e+00  -4.8211010305000074e-03 -1.8908570010287920e-01 0.0000000000000000e+00  -3.8118581108289190e-03 -1.4713873051463555e-01 0.0000000000000000e+00  -2.6576957603465889e-03 -1.0494504930558203e-01 0.0000000000000000e+00  -1.3632578700961300e-03 -6.2196835000821626e-02 0.0000000000000000e+00  -1.5123328186418707e-02 -6.2553129226965687e-01 0.0000000000000000e+00  -1.6228902563025342e-02 -6.1806294048608601e-01 0.0000000000000000e+00  -8.5011288105900432e-03 -3.4096826352055498e-01 0.0000000000000000e+00  -6.5551683947823625e-02 -5.1434615955864305e-01 0.0000000000000000e+00  -1.4716254232507227e-02 -5.1576164067649266e-01 0.0000000000000000e+00  -6.6598974612571568e-02 -5.5227933986168543e-01 0.0000000000000000e+00  -1.5763542877799207e-02 -5.5369482142738669e-01 0.0000000000000000e+00  -6.7646263541543003e-02 -5.9021251823104326e-01 0.0000000000000000e+00  -1.6810832272842819e-02 -5.9162799963415158e-01 0.0000000000000000e+00  -6.1354906666504123e-02 -3.6265201889047471e-01 0.0000000000000000e+00  -1.0523123400105866e-02 -3.6406151844004125e-01 0.0000000000000000e+00  -6.2407235586274208e-02 -4.0054615220620288e-01 0.0000000000000000e+00  -1.1575074026869836e-02 -4.0196067760050613e-01 0.0000000000000000e+00  -6.3457502469670385e-02 -4.3847949484293752e-01 0.0000000000000000e+00  -1.2621621040633666e-02 -4.3989514969417781e-01 0.0000000000000000e+00  -6.4504371974105593e-02 -4.7641302641636618e-01 0.0000000000000000e+00  -1.3668963849014414e-02 -4.7782849659224785e-01 0.0000000000000000e+00  -6.8693552900985042e-02 -6.2814569637246942e-01 0.0000000000000000e+00  -1.7858121594326069e-02 -6.2956117779183374e-01 0.0000000000000000e+00  3.4014669669590039e-03 -4.6088083915903501e-02 0.0000000000000000e+00  2.3810269450282345e-02 -3.2261658770952956e-01 0.0000000000000000e+00  -1.2934421909236889e-02 -4.9494102224071268e-01 0.0000000000000000e+00  -1.1981457896467337e-02 -5.1173175967153361e-01 0.0000000000000000e+00  -1.3763299641935373e-02 -5.3255237466375971e-01 0.0000000000000000e+00  -1.5028992673549395e-02 -5.7080738327083980e-01 0.0000000000000000e+00  -1.4076038819059432e-02 -5.8759811403042539e-01 0.0000000000000000e+00  -1.3028750065812129e-02 -5.4966493614176715e-01 0.0000000000000000e+00  -7.7948182356035083e-03 -3.5996534103877970e-01 0.0000000000000000e+00  -9.5769638262651197e-03 -3.8079816819774198e-01 0.0000000000000000e+00  -1.0839956763112991e-02 -4.1907433903685953e-01 0.0000000000000000e+00  -9.8874273176543653e-03 -4.3586582515192529e-01 0.0000000000000000e+00  -1.1668651364110029e-02 -4.5668593314433864e-01 0.0000000000000000e+00  -8.8352989104704526e-03 -3.9793188110536382e-01 0.0000000000000000e+00  -1.0934146076699611e-02 -4.7379853085601453e-01 0.0000000000000000e+00  -7.6777876644074572e-04 -4.5971728028229387e-02 0.0000000000000000e+00  2.3810269450282345e-02 -3.2261658770952956e-01 0.0000000000000000e+00  3.4014669669590039e-03 -4.6088083915903501e-02 0.0000000000000000e+00  0.0000000000000000e+00 0.0000000000000000e+00 0.0000000000000000e+00  8.9037540782850434e-05 -1.4086217992699624e-02 0.0000000000000000e+00  -8.5268918685921789e-04 -5.4862749279051479e-02 0.0000000000000000e+00  -1.6043208217900069e-03 -7.5592488062912550e-02 0.0000000000000000e+00  1.3605868197809024e-02 -1.8435233579005422e-01 0.0000000000000000e+00  1.3980029578334179e-02 -1.8942202502794103e-01 0.0000000000000000e+00  1.7007335281597355e-02 -2.3044041976262430e-01 0.0000000000000000e+00  1.7007335281597355e-02 -2.3044041976262430e-01 0.0000000000000000e+00  1.0204401116247565e-02 -1.3826425181794905e-01 0.0000000000000000e+00  1.0204401116247565e-02 -1.3826425181794905e-01 0.0000000000000000e+00  -2.1407813300364383e-03 -9.5228608686976648e-02 0.0000000000000000e+00  -2.6869361439972204e-03 -1.1759835988708457e-01 0.0000000000000000e+00  -5.6182920599017984e-03 -2.4924576379511951e-01 0.0000000000000000e+00  2.3668277074479697e-04 -1.4947868467796978e-02 0.0000000000000000e+00  -3.7264400683941286e-03 -1.5916672714060104e-01 0.0000000000000000e+00  -3.2180034292766855e-03 -1.3748163042088518e-01 0.0000000000000000e+00  -4.7248563927880386e-03 -2.0061485118212585e-01 0.0000000000000000e+00  -4.2387099529111825e-03 -1.7941187030071112e-01 0.0000000000000000e+00  8.5036675647614402e-03 -1.1522020982716008e-01 0.0000000000000000e+00  8.5036675790862506e-03 -1.1522020983502285e-01 0.0000000000000000e+00  0.0000000000000000e+00 0.0000000000000000e+00 0.0000000000000000e+00  2.7211736534409583e-02 -3.6870467168281756e-01 0.0000000000000000e+00  2.4390170052131233e-02 -3.3047393484125215e-01 0.0000000000000000e+00  1.9320332898973908e-02 -2.6178031686465708e-01 0.0000000000000000e+00  1.8708068824291459e-02 -2.5348446174978329e-01 0.0000000000000000e+00  -7.7788519839541315e-03 -3.2423718117304634e-01 0.0000000000000000e+00  -5.2169756388671653e-03 -2.2141640061940354e-01 0.0000000000000000e+00  -5.6963752605942806e-03 -2.4262162362942719e-01 0.0000000000000000e+00  -1.6724603069776505e-03 -9.7638183315966173e-02 0.0000000000000000e+00  -2.5393996158101445e-03 -1.3975108736979483e-01 0.0000000000000000e+00  -1.2513116387989818e-03 -7.4425832323078964e-02 0.0000000000000000e+00  5.1022005195925629e-03 -6.9132125876836856e-02 0.0000000000000000e+00  -3.5353561225271637e-03 -1.8156572476885224e-01 0.0000000000000000e+00  -2.0969417696963030e-03 -1.1722048428469575e-01 0.0000000000000000e+00  -4.7169177208952386e-03 -2.2348447432039387e-01 0.0000000000000000e+00  -3.0223722827862768e-03 -1.5957570277689950e-01 0.0000000000000000e+00  -4.0985514849411903e-03 -2.0181302887556821e-01 0.0000000000000000e+00  -4.6328411537916407e-04 -3.2206070015792683e-02 0.0000000000000000e+00  -3.6857044263223764e-04 -3.3549375477078515e-02 0.0000000000000000e+00  -8.6098104671143358e-03 -3.3013747922653258e-01 0.0000000000000000e+00  2.7064468872106755e-03 -3.6670927894415846e-02 0.0000000000000000e+00  2.1602537031528264e-02 -2.9270297849626636e-01 0.0000000000000000e+00  -1.6232619161427306e-02 -6.0442219213829262e-01 0.0000000000000000e+00  -1.7018086141770531e-02 -6.3287207577900861e-01 0.0000000000000000e+00  1.1280953235849924e-02 -1.5285096489717587e-01 0.0000000000000000e+00  -1.4527631834984860e-02 -5.7830144376257708e-01 0.0000000000000000e+00  -1.2723423349350142e-02 -4.6733770120199258e-01 0.0000000000000000e+00  -1.2199637250354093e-02 -4.4837105378429704e-01 0.0000000000000000e+00  -1.0633431973408672e-02 -3.9146634022903687e-01 0.0000000000000000e+00  -1.0108524122805952e-02 -3.7248782613621267e-01 0.0000000000000000e+00  -1.4818021861071680e-02 -5.4320405536032146e-01 0.0000000000000000e+00  -1.4294377829150237e-02 -5.2423746560190354e-01 0.0000000000000000e+00  -9.5359666071658002e-03 -3.5345311398920720e-01 0.0000000000000000e+00  -8.2347612946415856e-03 -3.5056026747544883e-01 0.0000000000000000e+00  -1.6146294825565136e-02 -6.3388283314041038e-01 0.0000000000000000e+00  -1.2433053249557468e-02 -5.0243508679400040e-01 0.0000000000000000e+00  -1.1959171573196063e-02 -4.8527108490980947e-01 0.0000000000000000e+00  -1.4053755053891235e-02 -5.6113746436618661e-01 0.0000000000000000e+00  -1.5021559540565889e-02 -5.9808887999462301e-01 0.0000000000000000e+00  -1.0338636024395229e-02 -4.2656921077153448e-01 0.0000000000000000e+00  -9.8649085739014111e-03 -4.0940523795021661e-01 0.0000000000000000e+00  2.4784648042051726e-02 -3.3581890343102444e-01 0.0000000000000000e+00  2.9238635419030976e-03 -3.9616811717661710e-02 0.0000000000000000e+00  -5.8955812801551812e-04 -4.2601110447001218e-02 0.0000000000000000e+00  2.7211736534360143e-02 -3.6870467168278204e-01 0.0000000000000000e+00  1.6599252409562639e-02 -2.2491111219903731e-01 0.0000000000000000e+00  -1.3473522404252748e-02 -5.4201843885442580e-01 0.0000000000000000e+00  -1.2872380456229524e-02 -5.2214206805945906e-01 0.0000000000000000e+00  -9.2829086009120470e-03 -3.9027827310386543e-01 0.0000000000000000e+00  -8.6745856788781883e-03 -3.7036313158258510e-01 0.0000000000000000e+00  -1.1378929858834918e-02 -4.6615200178284538e-01 0.0000000000000000e+00  -1.0777842945214628e-02 -4.4627568644920523e-01 0.0000000000000000e+00  -1.1207900999709926e-02 -4.1051660944316276e-01 0.0000000000000000e+00  -1.1730506703021608e-02 -4.2948452671008486e-01 0.0000000000000000e+00  -1.5396267704530195e-02 -5.6225110240376408e-01 0.0000000000000000e+00  -1.5888208272926366e-02 -5.8196655934116470e-01 0.0000000000000000e+00  -1.3301699153506532e-02 -4.8638474701175083e-01 0.0000000000000000e+00  -1.3825338335108754e-02 -5.0535133339053828e-01 0.0000000000000000e+00  -1.1482727829526522e-03 -5.7925471960099048e-02 0.0000000000000000e+00  -6.5217469933365330e-03 -2.7716520711554749e-01 0.0000000000000000e+00  -6.1263144169944293e-03 -2.6728868617533769e-01 0.0000000000000000e+00  -5.1939816129736256e-02 -2.6599986156543648e-01 0.0000000000000000e+00  -7.2534347115538050e-03 -2.9737562477872814e-01 0.0000000000000000e+00  1.6100956328760557e-02 -2.1815946325540952e-01 0.0000000000000000e+00  1.1207598774372314e-02 -1.5185705077359041e-01 0.0000000000000000e+00  -5.6154339779714230e-04 -1.2323213311434763e-02 0.0000000000000000e+00  -3.3888967274038960e-03 -1.2240258096714767e-02 0.0000000000000000e+00  -9.3530523323331165e-03 -3.3362838439136194e-01 0.0000000000000000e+00  -5.9680452329206435e-02 -3.3214278895862054e-01 0.0000000000000000e+00  2.1804466829042350e-02 -2.9543902069150069e-01 0.0000000000000000e+00  7.5885738363876453e-03 -1.0282117285596723e-01 0.0000000000000000e+00  5.9525672515779483e-03 -8.0654146849119882e-02 0.0000000000000000e+00  1.9612642585293768e-02 -2.6574095885445748e-01 0.0000000000000000e+00  -7.0947307313853651e-03 -2.8900726297386409e-01 0.0000000000000000e+00  -5.7226678290764221e-02 -3.0967577993144579e-01 0.0000000000000000e+00  -8.1730044161046119e-03 -3.1110067961838922e-01 0.0000000000000000e+00  -5.9625058367098376e-03 -2.5516086343831024e-01 0.0000000000000000e+00  -6.4121418725139418e-03 -2.7414233597479720e-01 0.0000000000000000e+00  -5.9364081427513314e-03 -2.6066670751284676e-01 0.0000000000000000e+00  -5.2608405893833678e-03 -2.4587608582906134e-01 0.0000000000000000e+00  -4.9061944868209167e-02 -2.4465817064541379e-01 0.0000000000000000e+00  -6.2422810807271651e-03 -2.6325875078932237e-01 0.0000000000000000e+00  -4.6018031115327721e-02 -2.2355309015984634e-01 0.0000000000000000e+00  -4.4922576957408585e-03 -2.2469568559693032e-01 0.0000000000000000e+00  -8.0991948762839470e-03 -3.1769261251391745e-01 0.0000000000000000e+00  -6.8906751095540808e-03 -3.0706060250989886e-01 0.0000000000000000e+00  -6.9822823067132887e-03 -2.9742420710755368e-01 0.0000000000000000e+00  -7.1997410582613254e-03 -3.2961927833583438e-01 0.0000000000000000e+00  -3.8135922883222257e-03 -2.0367593439171641e-01 0.0000000000000000e+00  -4.2798013815816473e-02 -2.0261288754724965e-01 0.0000000000000000e+00  -5.2091002751948898e-03 -2.3903654928820289e-01 0.0000000000000000e+00  -2.4083405808496758e-03 -1.0644357781970612e-01 0.0000000000000000e+00  -3.2170708009913516e-03 -1.8274771371824799e-01 0.0000000000000000e+00  -3.9386669052143497e-02 -1.8176909225465707e-01 0.0000000000000000e+00  -1.8119943924884026e-02 -6.3904447233963635e-01 0.0000000000000000e+00  -6.8955375232952268e-02 -6.3762899092009084e-01 0.0000000000000000e+00  -1.7596299264117696e-02 -6.2007788324459712e-01 0.0000000000000000e+00  -6.8431730566646989e-02 -6.1866240182642873e-01 0.0000000000000000e+00  -1.3930788623260556e-02 -4.8731177230682632e-01 0.0000000000000000e+00  -6.4766197126335509e-02 -4.8589630009574142e-01 0.0000000000000000e+00  -1.3407134342538141e-02 -4.6834522501646325e-01 0.0000000000000000e+00  -6.4242568045034643e-02 -4.6692974846745411e-01 0.0000000000000000e+00  -1.2883456416835347e-02 -4.4937860284471037e-01 0.0000000000000000e+00  -6.3719123614183540e-02 -4.4796304136897869e-01 0.0000000000000000e+00  -1.2359823951311848e-02 -4.3041150536108724e-01 0.0000000000000000e+00  -6.3195870653653660e-02 -4.2899576041447485e-01 0.0000000000000000e+00  -1.1836508810239815e-02 -4.1144383951588803e-01 0.0000000000000000e+00  -6.2671313641250920e-02 -4.1002842067113821e-01 0.0000000000000000e+00  -1.1313777797258952e-02 -3.9247941430411226e-01 0.0000000000000000e+00  -6.2141190303010962e-02 -3.9106667151255314e-01 0.0000000000000000e+00  -1.0789568791281831e-02 -3.7352951595333667e-01 0.000000000