<?xml version="1.0"?>
<VTKFile type="UnstructuredGrid"  version="0.1"  >
<UnstructuredGrid>
<Piece  NumberOfPoints="6614" NumberOfCells="12519">
<Points>
<DataArray  type="Float64"  NumberOfComponents="3"  format="ascii">0 0 0  6.5 -0.125 0  12 -0.125 0  12 0.125 0  6.5 0.125 0  0 1 0  12 0.875 0  6.5 0.875 0  -2.5 1 0  -2.5 0 0  3.25 0.0625 0  3.25 0.9375 0  3.25 -0.0625 0  9.25 0.125 0  9.25 0.875 0  9.25 -0.125 0  1.625 0.03125 0  1.625 0.96875 0  1.625 -0.03125 0  4.875 0.90625 0  4.875 0.09375 0  4.875 -0.09375 0  7.875 0.125 0  7.875 0.875 0  7.875 -0.125 0  10.625 0.875 0  10.625 0.125 0  10.625 -0.125 0  -1.25 1 0  -1.25 0 0  0.8125 0.015625 0  0.8125 0.984375 0  0.8125 -0.015625 0  2.4375 0.953125 0  2.4375 0.046875 0  2.4375 -0.046875 0  4.0625 0.078125 0  4.0625 0.921875 0  4.0625 -0.078125 0  5.6875 0.109375 0  5.6875 0.890625 0  5.6875 -0.109375 0  -1.875 0 0  -1.875 1 0  -0.625 0 0  -0.625 1 0  8.5625 0.875 0  8.5625 0.125 0  8.5625 -0.125 0  7.1875 0.125 0  7.1875 0.875 0  7.1875 -0.125 0  11.3125 0.125 0  11.3125 0.875 0  11.3125 -0.125 0  9.9375 0.125 0  9.9375 0.875 0  9.9375 -0.125 0  0 0.5 0  1.209585336538462 0.5 0  2.022385817307693 0.5 0  2.835186298076923 0.5 0  3.647986778846154 0.5 0  -0.9375 0.5 0  -1.5625 0.5 0  -2.5 0.5 0  4.460787259615385 0.5 0  5.28125 0.1015625 0  5.28125 0.8984375 0  5.28125 -0.1015625 0  6.09375 0.8828125 0  6.09375 0.1171875 0  6.09375 -0.1171875 0  8.90625 0.5 0  7.53125 0.5 0  8.21875 0.5 0  6.84375 0.5 0  10.28125 0.5 0  10.96875 0.5 0  12 0.5 0  9.59375 0.5 0  0.5506310096153846 0.5 0  -0.46875 0.4453125 0  -2.03125 0.4453125 0  5.070387620192307 0.5 0  5.883188100961538 0.5 0  4.46875 0.0859375 0  4.46875 -0.0859375 0  3.65625 -0.0703125 0  3.65625 0.0703125 0  2.84375 0.0546875 0  2.84375 -0.0546875 0  2.03125 -0.0390625 0  2.03125 0.0390625 0  1.21875 0.0234375 0  1.21875 -0.0234375 0  4.054387019230769 0.4847310450995098 0  3.241586538461538 0.4699247074852732 0  1.615985576923077 0.4417102219320143 0  5.476787860576923 0.53993893765092 0  2.428786057692307 0.4556005042418 0  0.40625 0.0078125 0  0.40625 -0.0078125 0  0.40625 0.9921875 0  4.46875 0.9140625 0  3.65625 0.9296875 0  2.84375 0.9453125 0  2.03125 0.9609375 0  1.21875 0.9765625 0  11.65625 0.875 0  11.484375 0.5 0  6.467329545454546 0.5 0  9.59375 -0.125 0  9.59375 0.125 0  10.28125 -0.125 0  10.28125 0.125 0  10.96875 -0.125 0  10.96875 0.125 0  6.84375 -0.125 0  6.84375 0.125 0  7.53125 -0.125 0  7.53125 0.125 0  8.21875 -0.125 0  8.21875 0.125 0  8.90625 -0.125 0  8.90625 0.125 0  11.65625 -0.125 0  11.65625 0.125 0  -0.3125 1 0  -2.1875 1 0  9.25 0.4700520833333333 0  9.59375 0.875 0  9.9375 0.5299479166666666 0  10.625 0.4700520833333333 0  10.96875 0.875 0  10.28125 0.875 0  6.84375 0.875 0  7.1875 0.5299479166666666 0  7.875 0.4700520833333333 0  8.21875 0.875 0  8.5625 0.5299479166666666 0  7.53125 0.875 0  8.90625 0.875 0  0.8801081730769231 0.63484883039911 0  -2.1875 0 0  -0.3125 0 0  0 0.25 0  0.2753155048076923 0.6865079365079365 0  1.011042668269231 0.2578125 0  1.446827777824054 0.7082004557951647 0  -1.25 0.65234375 0  -1.284375 0.326171875 0  -1.5625 0 0  -1.5625 1 0  -0.9375 0 0  -0.9375 1 0  1.823692908653846 0.7343749999999999 0  2.250687166802934 0.7075583934794667 0  4.765587439903847 0.3964836665810265 0  0.2753155048076923 0.375 0  3.054829110674799 0.707148526758953 0  2.636343149038462 0.7265625000000001 0  3.859250973615127 0.7069998487229827 0  3.448993389423077 0.7187500000000001 0  -0.78125 0.75 0  -0.78125 0.25 0  0 0.75 0  -2.5 0.25 0  -2.240776699029126 0.6856416868932038 0  -1.775 0.28515625 0  -1.71875 0.75 0  6.175258823208043 0.5886645441611957 0  4.261643629807693 0.7109374999999998 0  4.667893629807693 0.7031250000000002 0  1.824167367109634 0.2409531602990362 0  2.636686615214766 0.2555772588321514 0  1.38325552388875 0.2649704395311445 0  -0.46875 0.7446632922535211 0  3.449201796915416 0.2704128103983777 0  2.203202991433102 0.2729232708226779 0  4.261712450328808 0.2854838329019752 0  3.023283383806745 0.2808786583609286 0  3.843540099517909 0.288837436732593 0  0.6331235396611878 0.7683768130429148 0  0.6054339511832376 0.2166532884716425 0  6.256771799991964 0.3317884692185022 0  -0.2486470253814554 0.5949878961267605 0  -1.984670937186905 0.7576275392581842 0  11.2265625 0.3912760416666667 0  11.7421875 0.3912760416666667 0  -1.036405127827206 0.2643561701079966 0  10.78053977272727 0.6725260416666666 0  8.734375 0.3125 0  8.390625 0.3125 0  7.359375 0.3125 0  7.015625 0.3125 0  10.109375 0.3125 0  9.765625 0.3125 0  6.671875 0.3125 0  6.655539772727273 0.6725260416666669 0  11.78555345556989 0.6484760842723984 0  9.405539772727273 0.6725260416666666 0  9.094460227272727 0.6725260416666666 0  10.46946022727273 0.6725260416666666 0  11.140625 0.6875 0  8.030539772727273 0.6725260416666666 0  7.719460227272728 0.6725260416666666 0  -2.277018229166667 0.375 0  -0.2686215753424658 0.2654644691780822 0  0.7924173055676504 0.3931430043056919 0  -2.5 0.75 0  -1.525008560462654 0.2496950333675564 0  7.703125 0.2975260416666667 0  8.046875 0.2975260416666666 0  10.453125 0.2975260416666667 0  10.81190567787247 0.3125 0  9.078125 0.2975260416666667 0  9.421875 0.2975260416666666 0  10.12440567787247 0.6875 0  9.765625 0.7024739583333333 0  7.374405677872475 0.6875 0  7.015625 0.7024739583333333 0  8.749405677872474 0.6875 0  8.390625 0.7024739583333333 0  1.115551444307063 0.7401777158454262 0  5.28922999544003 0.360801083570939 0  5.078125 0.09765625 0  5.078125 -0.09765625 0  5.664767392260801 0.3650917682044265 0  -1.479229041916168 0.7258724738023952 0  -1.029665898617512 0.7685681883640553 0  0.203125 0.00390625 0  0.203125 -0.00390625 0  6.296875 0.12109375 0  6.296875 -0.12109375 0  -2.00322265625 0.205078125 0  -0.6971783980582524 0.5236271237864077 0  -0.546875 0.22265625 0  -1.801855111236272 0.5242311804773303 0  5.484375 0.10546875 0  5.890625 -0.11328125 0  5.890625 0.11328125 0  4.903633313301282 0.6699100680171115 0  5.260369462255295 0.6544725809557483 0  4.972693810096154 0.296875 0  4.671875 0.08984375 0  4.671875 -0.08984375 0  5.078125 0.90234375 0  4.265625 -0.08203125 0  4.265625 0.08203125 0  6.03259461594712 0.3328645427790781 0  5.890625 0.88671875 0  5.692656615207549 0.6488796598294736 0  6.296875 0.87890625 0  3.859375 0.07421875 0  3.859375 -0.07421875 0  4.561082497482947 0.2948209397629855 0  2.036725213111611 0.7135654082038703 0  3.453125 0.06640625 0  3.453125 -0.06640625 0  11.828125 0.125 0  11.828125 -0.125 0  11.484375 0.125 0  11.484375 -0.125 0  9.078125 0.125 0  9.078125 -0.125 0  8.734375 0.125 0  8.734375 -0.125 0  8.390625 0.125 0  8.390625 -0.125 0  8.046875 0.125 0  8.046875 -0.125 0  7.703125 0.125 0  7.703125 -0.125 0  7.359375 0.125 0  7.359375 -0.125 0  7.015625 0.125 0  7.015625 -0.125 0  6.671875 0.125 0  6.671875 -0.125 0  11.140625 0.125 0  11.140625 -0.125 0  10.796875 0.125 0  10.796875 -0.125 0  10.453125 0.125 0  10.453125 -0.125 0  10.109375 0.125 0  10.109375 -0.125 0  9.765625 0.125 0  9.765625 -0.125 0  9.421875 0.125 0  9.421875 -0.125 0  3.046875 0.05859375 0  3.046875 -0.05859375 0  2.846431093850899 0.7350694856199397 0  2.640625 -0.05078125 0  2.640625 0.05078125 0  0.203125 0.99609375 0  6.362699038303388 0.6807243972366781 0  2.234375 0.04296875 0  2.234375 -0.04296875 0  11.581701212888 0.6822801732596659 0  11.35203598484848 0.6662326388888888 0  1.828125 0.03515625 0  1.828125 -0.03515625 0  5.984553033425814 0.6914815580202875 0  1.822525515412832 0.4475696738977717 0  1.41733060903937 0.5025442175645189 0  1.588893519464248 0.2357861358511414 0  3.654445727495178 0.7241715610932831 0  -0.2708370651139332 0.7990289667308481 0  1.421875 0.02734375 0  1.421875 -0.02734375 0  5.484375 0.89453125 0  2.633855454650776 0.460690271159621 0  2.40795634504651 0.2507007772874862 0  2.225403489025307 0.476130253335854 0  1.015625 -0.01953125 0  1.015625 0.01953125 0  3.227321013248274 0.265830895248878 0  3.445567521085816 0.4744107463092357 0  3.038321171612397 0.4840806912614364 0  0.609375 0.01171875 0  0.609375 -0.01171875 0  4.257720382725849 0.4888191036475296 0  4.047058936483319 0.2812008669921838 0  3.851174586896061 0.4920378211671812 0  0.609375 0.98828125 0  4.464694218296445 0.7031618514150944 0  4.671875 0.91015625 0  4.265625 0.91796875 0  3.453125 0.93359375 0  3.859375 0.92578125 0  2.640625 0.94921875 0  3.046875 0.94140625 0  2.234375 0.95703125 0  1.828125 0.96484375 0  1.421875 0.97265625 0  1.015625 0.98046875 0  5.484375 -0.10546875 0  4.060661963989729 0.6870321141431521 0  -2.34375 0 0  -2.34375 1 0  1.003521337202078 0.4664537109579014 0  3.646922073215719 0.2678295141073984 0  3.253141618048695 0.6711470624742265 0  0.3013894287350291 0.1773590807784885 0  -1.124347644480009 0.4398459561477482 0  2.831246172847781 0.248957659490205 0  2.446473427278441 0.6570274073729461 0  -2.198800970885971 0.1954869700666445 0  2.01591648071966 0.2304840455985115 0  0.827600060761903 0.2057214409193794 0  1.640609275971101 0.6442729681322822 0  -0.15625 0 0  6.483664772727272 0.3124999999999999 0  5.477125710212377 0.3518294601818938 0  11.41161533959385 0.3125 0  12 0.3125 0  11.04150966040615 0.3125 0  12 0.6875 0  1.198054295914707 0.2143210783083181 0  -1.40625 0 0  0.9109798103993655 0.8221220157670066 0  5.845812869360681 0.3162425406240469 0  0.4667569911039429 0.6726473502422988 0  0.4593425712678239 0.3353704711440587 0  8.211153274166278 0.6806358075271245 0  9.586153274166278 0.6806358075271245 0  6.835007346992159 0.6944141097550816 0  6.663707386363637 0.4925130208333334 0  10.96058238636364 0.680013020833333 0  -1.40625 1 0  -1.320649221029402 0.826171875 0  5.082724050007036 0.6788909168133963 0  -0.1275597151206816 0.375 0  0.7018834652202378 0.6003751687871122 0  -1.71875 0 0  5.523196914803937 0.7163232589905226 0  0.3602612407862962 0.5307539682539683 0  0.1786479052710517 0.5327459553507268 0  1.289006631999016 0.8051714473419221 0  -1.328125 0.156663781811377
[...]
<PointData  Vectors="displacement"> 
<DataArray  type="Float64"  Name="displacement"  NumberOfComponents="3" format="ascii">0.0000000000000000e+00 0.0000000000000000e+00 0.0000000000000000e+00  -1.8955764584300096e-03 1.5200300921477386e-01 0.0000000000000000e+00  -3.3824566644666838e-03 2.7988370147587965e-01 0.0000000000000000e+00  -3.3697712363643761e-03 2.7952556885681834e-01 0.0000000000000000e+00  -1.8828910304254985e-03 1.5164487659572984e-01 0.0000000000000000e+00  0.0000000000000000e+00 0.0000000000000000e+00 0.0000000000000000e+00  -3.3317149520534738e-03 2.7845117099963435e-01 0.0000000000000000e+00  -1.8448347459632524e-03 1.5057047873846388e-01 0.0000000000000000e+00  2.0797239421989668e-03 -5.8050290638033068e-02 0.0000000000000000e+00  2.0797239421989668e-03 -5.8050290638033068e-02 0.0000000000000000e+00  -1.0074550626168353e-03 7.6168551859571901e-02 0.0000000000000000e+00  -9.6306206123248305e-04 7.4915072916226066e-02 0.0000000000000000e+00  -1.0138023461320831e-03 7.6347618828387045e-02 0.0000000000000000e+00  -2.6263311333803649e-03 2.1558522272623418e-01 0.0000000000000000e+00  -2.5882748490645437e-03 2.1451082486904999e-01 0.0000000000000000e+00  -2.6390165614838864e-03 2.1594335534529580e-01 0.0000000000000000e+00  -5.7073166153638513e-04 3.8430079278540002e-02 0.0000000000000000e+00  -5.2410187016891871e-04 3.7087169930234629e-02 0.0000000000000000e+00  -5.7427599216018123e-04 3.8519782508610718e-02 0.0000000000000000e+00  -1.4039435644727905e-03 1.1274278031750773e-01 0.0000000000000000e+00  -1.4451711995486262e-03 1.1390671140083045e-01 0.0000000000000000e+00  -1.4546852791367981e-03 1.1417531086439334e-01 0.0000000000000000e+00  -2.2546110818862175e-03 1.8361504966094805e-01 0.0000000000000000e+00  -2.2165547975676178e-03 1.8254065180376636e-01 0.0000000000000000e+00  -2.2672965099926178e-03 1.8397318228000950e-01 0.0000000000000000e+00  -2.9599949005588463e-03 2.4648099793434075e-01 0.0000000000000000e+00  -2.9980511848723634e-03 2.4755539579152466e-01 0.0000000000000000e+00  -3.0107366129749629e-03 2.4791352841058617e-01 0.0000000000000000e+00  1.0398619710994075e-03 -2.9025145319016461e-02 0.0000000000000000e+00  1.0398619710994075e-03 -2.9025145319016461e-02 0.0000000000000000e+00  -3.4360331503888734e-04 1.9578494494278086e-02 0.0000000000000000e+00  -2.8618777613434573e-04 1.8158379589328050e-02 0.0000000000000000e+00  -3.4410748726791251e-04 1.9621906362478295e-02 0.0000000000000000e+00  -7.4245103269328123e-04 5.6001320406531135e-02 0.0000000000000000e+00  -7.8852101948703940e-04 5.7299424733341778e-02 0.0000000000000000e+00  -7.9322549483613544e-04 5.7433711320564178e-02 0.0000000000000000e+00  -1.2263111208705932e-03 9.5037628265324192e-02 0.0000000000000000e+00  -1.1834974968211499e-03 9.3828931839947741e-02 0.0000000000000000e+00  -1.2342392393661864e-03 9.5261461134595757e-02 0.0000000000000000e+00  -1.6640311116056430e-03 1.3277579398052056e-01 0.0000000000000000e+00  -1.6243891496247967e-03 1.3165662954922808e-01 0.0000000000000000e+00  -1.6751308616626017e-03 1.3308916002237503e-01 0.0000000000000000e+00  1.5597929566491375e-03 -4.3537717978524626e-02 0.0000000000000000e+00  1.5597929566491375e-03 -4.3537717978524626e-02 0.0000000000000000e+00  5.1993098554969767e-04 -1.4512572659508250e-02 0.0000000000000000e+00  5.1993098554969767e-04 -1.4512572659508250e-02 0.0000000000000000e+00  -2.4024148233167649e-03 1.9852573833640649e-01 0.0000000000000000e+00  -2.4404711076343772e-03 1.9960013619359093e-01 0.0000000000000000e+00  -2.4531565357382608e-03 1.9995826881265263e-01 0.0000000000000000e+00  -2.0687510561391105e-03 1.6762996312831446e-01 0.0000000000000000e+00  -2.0306947718366068e-03 1.6655556527111326e-01 0.0000000000000000e+00  -2.0814364842624195e-03 1.6798809574737916e-01 0.0000000000000000e+00  -3.1839112106182899e-03 2.6354048232417132e-01 0.0000000000000000e+00  -3.1458549263054607e-03 2.6246608446698738e-01 0.0000000000000000e+00  -3.1965966387207875e-03 2.6389861494323275e-01 0.0000000000000000e+00  -2.8121911591264008e-03 2.3157030925887884e-01 0.0000000000000000e+00  -2.7741348748119604e-03 2.3049591140169487e-01 0.0000000000000000e+00  -2.8248765872293910e-03 2.3192844187794040e-01 0.0000000000000000e+00  0.0000000000000000e+00 0.0000000000000000e+00 0.0000000000000000e+00  -4.3082698120813561e-04 2.8099281842563505e-02 0.0000000000000000e+00  -6.5336641791002847e-04 4.6998610422028776e-02 0.0000000000000000e+00  -8.7312277370300210e-04 6.5896958397455144e-02 0.0000000000000000e+00  -1.0928429961815976e-03 8.4795418986030643e-02 0.0000000000000000e+00  7.7989647832243621e-04 -2.1768858989261883e-02 0.0000000000000000e+00  1.2998274638694914e-03 -3.6281431648769846e-02 0.0000000000000000e+00  2.0797239421987924e-03 -5.8050290638033117e-02 0.0000000000000000e+00  -1.3125784313000599e-03 1.0369387094878860e-01 0.0000000000000000e+00  -1.5546011533779385e-03 1.2334125267843753e-01 0.0000000000000000e+00  -1.5141663614039391e-03 1.2219970494483055e-01 0.0000000000000000e+00  -1.5649080716844510e-03 1.2363223543283225e-01 0.0000000000000000e+00  -1.7346119469627383e-03 1.4111355414369928e-01 0.0000000000000000e+00  -1.7734610711634263e-03 1.4221033528854782e-01 0.0000000000000000e+00  -1.7853536594841038e-03 1.4254608461881524e-01 0.0000000000000000e+00  -2.5143729783322940e-03 2.0705548053132242e-01 0.0000000000000000e+00  -2.1426529268338689e-03 1.7508530746604056e-01 0.0000000000000000e+00  -2.3285129525712927e-03 1.9107039399868131e-01 0.0000000000000000e+00  -1.9567929011010364e-03 1.5910022093337495e-01 0.0000000000000000e+00  -2.8860930298113987e-03 2.3902565359661263e-01 0.0000000000000000e+00  -3.0719530555630044e-03 2.5501074012925795e-01 0.0000000000000000e+00  -3.3507430942088918e-03 2.7898836992822645e-01 0.0000000000000000e+00  -2.7002330040701819e-03 2.2304056706396724e-01 0.0000000000000000e+00  -3.1487313488465360e-04 1.2776839481372043e-02 0.0000000000000000e+00  3.8994823916111982e-04 -1.0884429494630686e-02 0.0000000000000000e+00  1.6897757030292049e-03 -4.7165861143400073e-02 0.0000000000000000e+00  -1.4773788187722639e-03 1.1786771024320783e-01 0.0000000000000000e+00  -1.6971128148685194e-03 1.3676616264149374e-01 0.0000000000000000e+00  -1.3357412177373721e-03 1.0447217007447765e-01 0.0000000000000000e+00  -1.3444623596049990e-03 1.0471838622757774e-01 0.0000000000000000e+00  -1.1240176994205223e-03 8.5804536243111657e-02 0.0000000000000000e+00  -1.1168815015426710e-03 8.5603086379258800e-02 0.0000000000000000e+00  -8.9802397470395694e-04 6.6734032167893406e-02 0.0000000000000000e+00  -9.0357421999234496e-04 6.6890712823744355e-02 0.0000000000000000e+00  -6.8284543283920552e-04 4.7976353543551460e-02 0.0000000000000000e+00  -6.7897351640924960e-04 4.7864420426521781e-02 0.0000000000000000e+00  -4.6580634284578261e-04 2.9003113390702634e-02 0.0000000000000000e+00  -4.6963494984268879e-04 2.9070348370472350e-02 0.0000000000000000e+00  -1.2034862349002099e-03 9.4266518149671824e-02 0.0000000000000000e+00  -9.8449853103456907e-04 7.5389275370323361e-02 0.0000000000000000e+00  -5.4491959351533003e-04 3.7632763351456155e-02 0.0000000000000000e+00  -1.5852192470753484e-03 1.2725972270082922e-01 0.0000000000000000e+00  -7.6559562959110255e-04 5.6511342527977487e-02 0.0000000000000000e+00  -1.2183649804733986e-04 1.0044522775436644e-02 0.0000000000000000e+00  -1.1351483608007979e-04 1.0064719266623168e-02 0.0000000000000000e+00  -4.4986592841035810e-05 8.8355960098975093e-03 0.0000000000000000e+00  -1.2937206101706043e-03 1.0328585579520960e-01 0.0000000000000000e+00  -1.0732765185056715e-03 8.4372007212176456e-02 0.0000000000000000e+00  -8.5282746866403728e-04 6.5458128947336797e-02 0.0000000000000000e+00  -6.3211862750434361e-04 4.6544920006542270e-02 0.0000000000000000e+00  -4.1969975309021985e-04 2.7620463181227687e-02 0.0000000000000000e+00  -3.2387849391785767e-03 2.7045862773331081e-01 0.0000000000000000e+00  -3.2113480748833332e-03 2.6699955502874190e-01 0.0000000000000000e+00  -1.8550306970214531e-03 1.5034805578636487e-01 0.0000000000000000e+00  -2.7319465743566493e-03 2.2393589861161795e-01 0.0000000000000000e+00  -2.7192611462534036e-03 2.2357776599255635e-01 0.0000000000000000e+00  -2.9178066001021561e-03 2.3992098514426305e-01 0.0000000000000000e+00  -2.9051211719993450e-03 2.3956285252520157e-01 0.0000000000000000e+00  -3.1036666258478446e-03 2.5590607167690937e-01 0.0000000000000000e+00  -3.0909811977453366e-03 2.5554793905784789e-01 0.0000000000000000e+00  -1.9885064714018109e-03 1.5999555248109659e-01 0.0000000000000000e+00  -1.9758210432728172e-03 1.5963741986202959e-01 0.0000000000000000e+00  -2.1743664971221157e-03 1.7598063901368857e-01 0.0000000000000000e+00  -2.1616810690139468e-03 1.7562250639462654e-01 0.0000000000000000e+00  -2.3602265228650863e-03 1.9196572554633134e-01 0.0000000000000000e+00  -2.3475410947613388e-03 1.9160759292726967e-01 0.0000000000000000e+00  -2.5460865486110987e-03 2.0795081207897406e-01 0.0000000000000000e+00  -2.5334011205073882e-03 2.0759267945991242e-01 0.0000000000000000e+00  -3.2895266515937807e-03 2.7189115820955623e-01 0.0000000000000000e+00  -3.2768412234912762e-03 2.7153302559049480e-01 0.0000000000000000e+00  2.5996549277486781e-04 -7.2562863297541231e-03 0.0000000000000000e+00  1.8197584494241094e-03 -5.0794004308278830e-02 0.0000000000000000e+00  -2.6088225997802682e-03 2.1509092510096905e-01 0.0000000000000000e+00  -2.6812048619383019e-03 2.2250336813537225e-01 0.0000000000000000e+00  -2.7916434083742696e-03 2.3099020902696446e-01 0.0000000000000000e+00  -2.9805426512750678e-03 2.4706109816625912e-01 0.0000000000000000e+00  -3.0529249134321531e-03 2.5447354120066384e-01 0.0000000000000000e+00  -2.8670648876853370e-03 2.3848845466801746e-01 0.0000000000000000e+00  -1.9377647589682661e-03 1.5856302200475403e-01 0.0000000000000000e+00  -2.0482033053921453e-03 1.6704986289638957e-01 0.0000000000000000e+00  -2.2371025482820924e-03 1.8312075203568512e-01 0.0000000000000000e+00  -2.3094848104422343e-03 1.9053319507008570e-01 0.0000000000000000e+00  -2.4199233568823956e-03 1.9902003596167581e-01 0.0000000000000000e+00  -2.1236247846967002e-03 1.7454810853744634e-01 0.0000000000000000e+00  -2.4953448361907343e-03 2.0651828160272800e-01 0.0000000000000000e+00  -3.4690472525017218e-04 2.0232400356224804e-02 0.0000000000000000e+00  1.8197584494241094e-03 -5.0794004308278830e-02 0.0000000000000000e+00  2.5996549277486781e-04 -7.2562863297541231e-03 0.0000000000000000e+00  0.0000000000000000e+00 0.0000000000000000e+00 0.0000000000000000e+00  -2.0651321333975587e-04 6.2454997253611607e-03 0.0000000000000000e+00  -3.9446069951992567e-04 2.3843249574570822e-02 0.0000000000000000e+00  -4.8641837838091185e-04 3.3316674068061776e-02 0.0000000000000000e+00  1.0398619710966649e-03 -2.9025145319015660e-02 0.0000000000000000e+00  1.0684581753028365e-03 -2.9823336815288860e-02 0.0000000000000000e+00  1.2998274638742955e-03 -3.6281431648770540e-02 0.0000000000000000e+00  1.2998274638742955e-03 -3.6281431648770540e-02 0.0000000000000000e+00  7.7989647832455605e-04 -2.1768858989262341e-02 0.0000000000000000e+00  7.7989647832455605e-04 -2.1768858989262341e-02 0.0000000000000000e+00  -5.8759208374594828e-04 4.2043755526452120e-02 0.0000000000000000e+00  -7.0457758951800002e-04 5.2009608844625140e-02 0.0000000000000000e+00  -1.4002311922069648e-03 1.1092908090698210e-01 0.0000000000000000e+00  -2.4358346636777281e-04 6.4786469037345987e-03 0.0000000000000000e+00  -9.2197932251806452e-04 7.0707126028044825e-02 0.0000000000000000e+00  -8.0786640848775823e-04 6.0949076201304540e-02 0.0000000000000000e+00  -1.1394542109538441e-03 8.9410997197473738e-02 0.0000000000000000e+00  -1.0279482390004729e-03 7.9855249647606347e-02 0.0000000000000000e+00  6.4991373193717841e-04 -1.8140715824385867e-02 0.0000000000000000e+00  6.4991373193528604e-04 -1.8140715824384882e-02 0.0000000000000000e+00  0.0000000000000000e+00 0.0000000000000000e+00 0.0000000000000000e+00  2.0797239421988904e-03 -5.8050290638033075e-02 0.0000000000000000e+00  1.8640787800340878e-03 -5.2031095453428523e-02 0.0000000000000000e+00  1.4766039989538213e-03 -4.1215706353002382e-02 0.0000000000000000e+00  1.4298102102579726e-03 -3.9909574813646938e-02 0.0000000000000000e+00  -1.7715727652133856e-03 1.4343009455219041e-01 0.0000000000000000e+00  -1.2480381228009495e-03 9.8761401235177196e-02 0.0000000000000000e+00  -1.3582609499239093e-03 1.0821832560813274e-01 0.0000000000000000e+00  -6.1267578248770617e-04 4.2760178330926546e-02 0.0000000000000000e+00  -8.3187553866659206e-04 6.1631804961401047e-02 0.0000000000000000e+00  -4.9138605909049900e-04 3.2476522659856989e-02 0.0000000000000000e+00  3.8994823916212569e-04 -1.0884429494630867e-02 0.0000000000000000e+00  -1.0507520248538924e-03 8.0502352824339624e-02 0.0000000000000000e+00  -7.1383027653281253e-04 5.1527828392385053e-02 0.0000000000000000e+00  -1.2696451245009337e-03 9.9372476475508370e-02 0.0000000000000000e+00  -9.3507935730332127e-04 7.0584327156502022e-02 0.0000000000000000e+00  -1.1564250849232080e-03 8.9644731894772595e-02 0.0000000000000000e+00  -2.6764732914583085e-04 1.4307818666074449e-02 0.0000000000000000e+00  -2.9121500849166814e-04 1.4462066424677157e-02 0.0000000000000000e+00  -1.8066434666504632e-03 1.4569333843055193e-01 0.0000000000000000e+00  2.0684686873659260e-04 -5.7736128358702446e-03 0.0000000000000000e+00  1.6510270661774182e-03 -4.6084289889821793e-02 0.0000000000000000e+00  -3.1471674050612864e-03 2.6116089796280961e-01 0.0000000000000000e+00  -3.2865624243691217e-03 2.7314971286229484e-01 0.0000000000000000e+00  8.6217462326155473e-04 -2.4065447555646151e-02 0.0000000000000000e+00  -3.0123176867013711e-03 2.5038750874311955e-01 0.0000000000000000e+00  -2.4774220429805947e-03 2.0332780836245690e-01 0.0000000000000000e+00  -2.3844920301021198e-03 1.9533526509613605e-01 0.0000000000000000e+00  -2.1057019914857878e-03 1.7135763529717377e-01 0.0000000000000000e+00  -2.0127719786078822e-03 1.6336509203086008e-01 0.0000000000000000e+00  -2.8491420944661647e-03 2.3529798142774580e-01 0.0000000000000000e+00  -2.7562120815930510e-03 2.2730543816142346e-01 0.0000000000000000e+00  -1.9198419657839461e-03 1.5537254876455325e-01 0.0000000000000000e+00  -1.8971575322361248e-03 1.5447698954719200e-01 0.0000000000000000e+00  -3.2852352866740752e-03 2.7378956931165171e-01 0.0000000000000000e+00  -2.6405976352008777e-03 2.1841733567782931e-01 0.0000000000000000e+00  -2.5564998136351877e-03 2.1118441429219090e-01 0.0000000000000000e+00  -2.9282198651236170e-03 2.4315458735748127e-01 0.0000000000000000e+00  -3.1089039909439711e-03 2.5873841229812172e-01 0.0000000000000000e+00  -2.2688775836935504e-03 1.8644716261254624e-01 0.0000000000000000e+00  -2.1847797621291219e-03 1.7921424122691001e-01 0.0000000000000000e+00  1.8942277312059695e-03 -5.2872627996489112e-02 0.0000000000000000e+00  2.2346348865161711e-04 -6.2374242081102730e-03 0.0000000000000000e+00  -3.4440038924158934e-04 1.8561038603394905e-02 0.0000000000000000e+00  2.0797239421986953e-03 -5.8050290638033110e-02 0.0000000000000000e+00  1.2686387260981266e-03 -3.5410876064137675e-02 0.0000000000000000e+00  -2.1993918086401732e-03 1.7937162921515629e-01 0.0000000000000000e+00  -2.2923218215180822e-03 1.8736417248147733e-01 0.0000000000000000e+00  -2.9428319116247526e-03 2.4331197534573107e-01 0.0000000000000000e+00  -3.0390655415650910e-03 2.5163254677702518e-01 0.0000000000000000e+00  -2.5711118601446209e-03 2.1134180228044064e-01 0.0000000000000000e+00  -2.6640418730142670e-03 2.1933434554676307e-01 0.0000000000000000e+00  -2.8341773736556661e-03 2.3511026131578841e-01 0.0000000000000000e+00  -2.7364241351457291e-03 2.2674678858116967e-01 0.0000000000000000e+00  -2.0907372706717910e-03 1.7116991518521724e-01 0.0000000000000000e+00  -1.9929840321789151e-03 1.6280644245057468e-01 0.0000000000000000e+00  -2.4624573221668218e-03 2.0314008825049901e-01 0.0000000000000000e+00  -2.3647040836493318e-03 1.9477661551588182e-01 0.0000000000000000e+00  -3.9714766366224927e-04 2.5558146618220947e-02 0.0000000000000000e+00  -1.5436042637870656e-03 1.2315542865728191e-01 0.0000000000000000e+00  -1.4998861761379302e-03 1.1862398203608533e-01 0.0000000000000000e+00  -1.5097966794423718e-03 1.1890377314640486e-01 0.0000000000000000e+00  -1.6449100287087841e-03 1.3188091526105855e-01 0.0000000000000000e+00  1.2305552217839139e-03 -3.4347870321380321e-02 0.0000000000000000e+00  8.5656832872711979e-04 -2.3908961869927171e-02 0.0000000000000000e+00  2.7994580221430343e-05 5.1455374785474980e-03 0.0000000000000000e+00  3.7402301213104188e-05 5.1562237475526471e-03 0.0000000000000000e+00  -1.8281760508202854e-03 1.4692760594225251e-01 0.0000000000000000e+00  -1.8404650590020358e-03 1.4727454691690958e-01 0.0000000000000000e+00  1.6664600478982106e-03 -4.6515062963201209e-02 0.0000000000000000e+00  5.7997544256887070e-04 -1.6188563453535525e-02 0.0000000000000000e+00  4.5493961235496921e-04 -1.2698501077069446e-02 0.0000000000000000e+00  1.4989444860782583e-03 -4.1839285157954917e-02 0.0000000000000000e+00  -1.6093161320324006e-03 1.2805852332766465e-01 0.0000000000000000e+00  -1.7302422601344410e-03 1.3781762232049238e-01 0.0000000000000000e+00  -1.7187460914077344e-03 1.3749306463454600e-01 0.0000000000000000e+00  -1.4236766320091688e-03 1.1374709864837834e-01 0.0000000000000000e+00  -1.5209006639898546e-03 1.2206369801650331e-01 0.0000000000000000e+00  -1.4612750064168468e-03 1.1588721082002851e-01 0.0000000000000000e+00  -1.3904562175405719e-03 1.0918944076039208e-01 0.0000000000000000e+00  -1.3995738492688493e-03 1.0944684857174139e-01 0.0000000000000000e+00  -1.4590549689071494e-03 1.1747124263289545e-01 0.0000000000000000e+00  -1.2893507960068931e-03 9.9989923763428579e-02 0.0000000000000000e+00  -1.2810261819046903e-03 9.9754899264790808e-02 0.0000000000000000e+00  -1.7459843889369448e-03 1.4047944537958407e-01 0.0000000000000000e+00  -1.6795005477089242e-03 1.3638509184668210e-01 0.0000000000000000e+00  -1.6380497701586826e-03 1.3212283375708148e-01 0.0000000000000000e+00  -1.7897233464966961e-03 1.4584201644094297e-01 0.0000000000000000e+00  -1.1715961285590991e-03 9.0320357128911261e-02 0.0000000000000000e+00  -1.1791279930722558e-03 9.0532998445831875e-02 0.0000000000000000e+00  -1.3501035269485185e-03 1.0631976431433347e-01 0.0000000000000000e+00  -6.4636305668698242e-04 4.7026477202136360e-02 0.0000000000000000e+00  -1.0621677357610278e-03 8.0885817263647602e-02 0.0000000000000000e+00  -1.0689091549718449e-03 8.1076075774073345e-02 0.0000000000000000e+00  -3.3233062299295921e-03 2.7552929722365638e-01 0.0000000000000000e+00  -3.3359916580302084e-03 2.7588742984271791e-01 0.0000000000000000e+00  -3.2303762170547761e-03 2.6753675395733301e-01 0.0000000000000000e+00  -3.2430616451573045e-03 2.6789488657639443e-01 0.0000000000000000e+00  -2.5798661269438995e-03 2.1158895109307321e-01 0.0000000000000000e+00  -2.5925515550475169e-03 2.1194708371213486e-01 0.0000000000000000e+00  -2.4869361140708907e-03 2.0359640782675165e-01 0.0000000000000000e+00  -2.4996215421747214e-03 2.0395454044581332e-01 0.0000000000000000e+00  -2.3940061011978385e-03 1.9560386456043027e-01 0.0000000000000000e+00  -2.4066915293017295e-03 1.9596199717949200e-01 0.0000000000000000e+00  -2.3010760883247277e-03 1.8761132129410890e-01 0.0000000000000000e+00  -2.3137615164283642e-03 1.8796945391317046e-01 0.0000000000000000e+00  -2.2081460754502335e-03 1.7961877802778697e-01 0.0000000000000000e+00  -2.2208315035566000e-03 1.7997691064684854e-01 0.0000000000000000e+00  -2.1152160625758330e-03 1.7162623476146824e-01 0.0000000000000000e+00  -2.1279014906905639e-03 1.7198436738053122e-01 0.0000000000000000e+00  -2.0222860497031833e-03 1.6363369149516804e-01 0.0000000000000000e+00  -2.0349714778356565e-03 1.6399182411423457e-01 0.0000000000000000e+00  -1.9293560368474458e-03 1.5564114822889086e-01 0.0000000000000000e+00  -1.9420414649430479e-03 1.5599928084795375e-01 0.0000000000000000e+00  -3.