<?xml version="1.0"?>
<VTKFile type="UnstructuredGrid"  version="0.1"  >
<UnstructuredGrid>
<Piece  NumberOfPoints="6614" NumberOfCells="12519">
<Points>
<DataArray  type="Float64"  NumberOfComponents="3"  format="ascii">0 0 0  6.5 -0.125 0  12 -0.125 0  12 0.125 0  6.5 0.125 0  0 1 0  12 0.875 0  6.5 0.875 0  -2.5 1 0  -2.5 0 0  3.25 0.0625 0  3.25 0.9375 0  3.25 -0.0625 0  9.25 0.125 0  9.25 0.875 0  9.25 -0.125 0  1.625 0.03125 0  1.625 0.96875 0  1.625 -0.03125 0  4.875 0.90625 0  4.875 0.09375 0  4.875 -0.09375 0  7.875 0.125 0  7.875 0.875 0  7.875 -0.125 0  10.625 0.875 0  10.625 0.125 0  10.625 -0.125 0  -1.25 1 0  -1.25 0 0  0.8125 0.015625 0  0.8125 0.984375 0  0.8125 -0.015625 0  2.4375 0.953125 0  2.4375 0.046875 0  2.4375 -0.046875 0  4.0625 0.078125 0  4.0625 0.921875 0  4.0625 -0.078125 0  5.6875 0.109375 0  5.6875 0.890625 0  5.6875 -0.109375 0  -1.875 0 0  -1.875 1 0  -0.625 0 0  -0.625 1 0  8.5625 0.875 0  8.5625 0.125 0  8.5625 -0.125 0  7.1875 0.125 0  7.1875 0.875 0  7.1875 -0.125 0  11.3125 0.125 0  11.3125 0.875 0  11.3125 -0.125 0  9.9375 0.125 0  9.9375 0.875 0  9.9375 -0.125 0  0 0.5 0  1.209585336538462 0.5 0  2.022385817307693 0.5 0  2.835186298076923 0.5 0  3.647986778846154 0.5 0  -0.9375 0.5 0  -1.5625 0.5 0  -2.5 0.5 0  4.460787259615385 0.5 0  5.28125 0.1015625 0  5.28125 0.8984375 0  5.28125 -0.1015625 0  6.09375 0.8828125 0  6.09375 0.1171875 0  6.09375 -0.1171875 0  8.90625 0.5 0  7.53125 0.5 0  8.21875 0.5 0  6.84375 0.5 0  10.28125 0.5 0  10.96875 0.5 0  12 0.5 0  9.59375 0.5 0  0.5506310096153846 0.5 0  -0.46875 0.4453125 0  -2.03125 0.4453125 0  5.070387620192307 0.5 0  5.883188100961538 0.5 0  4.46875 0.0859375 0  4.46875 -0.0859375 0  3.65625 -0.0703125 0  3.65625 0.0703125 0  2.84375 0.0546875 0  2.84375 -0.0546875 0  2.03125 -0.0390625 0  2.03125 0.0390625 0  1.21875 0.0234375 0  1.21875 -0.0234375 0  4.054387019230769 0.4847310450995098 0  3.241586538461538 0.4699247074852732 0  1.615985576923077 0.4417102219320143 0  5.476787860576923 0.53993893765092 0  2.428786057692307 0.4556005042418 0  0.40625 0.0078125 0  0.40625 -0.0078125 0  0.40625 0.9921875 0  4.46875 0.9140625 0  3.65625 0.9296875 0  2.84375 0.9453125 0  2.03125 0.9609375 0  1.21875 0.9765625 0  11.65625 0.875 0  11.484375 0.5 0  6.467329545454546 0.5 0  9.59375 -0.125 0  9.59375 0.125 0  10.28125 -0.125 0  10.28125 0.125 0  10.96875 -0.125 0  10.96875 0.125 0  6.84375 -0.125 0  6.84375 0.125 0  7.53125 -0.125 0  7.53125 0.125 0  8.21875 -0.125 0  8.21875 0.125 0  8.90625 -0.125 0  8.90625 0.125 0  11.65625 -0.125 0  11.65625 0.125 0  -0.3125 1 0  -2.1875 1 0  9.25 0.4700520833333333 0  9.59375 0.875 0  9.9375 0.5299479166666666 0  10.625 0.4700520833333333 0  10.96875 0.875 0  10.28125 0.875 0  6.84375 0.875 0  7.1875 0.5299479166666666 0  7.875 0.4700520833333333 0  8.21875 0.875 0  8.5625 0.5299479166666666 0  7.53125 0.875 0  8.90625 0.875 0  0.8801081730769231 0.63484883039911 0  -2.1875 0 0  -0.3125 0 0  0 0.25 0  0.2753155048076923 0.6865079365079365 0  1.011042668269231 0.2578125 0  1.446827777824054 0.7082004557951647 0  -1.25 0.65234375 0  -1.284375 0.326171875 0  -1.5625 0 0  -1.5625 1 0  -0.9375 0 0  -0.9375 1 0  1.823692908653846 0.7343749999999999 0  2.250687166802934 0.7075583934794667 0  4.765587439903847 0.3964836665810265 0  0.2753155048076923 0.375 0  3.054829110674799 0.707148526758953 0  2.636343149038462 0.7265625000000001 0  3.859250973615127 0.7069998487229827 0  3.448993389423077 0.7187500000000001 0  -0.78125 0.75 0  -0.78125 0.25 0  0 0.75 0  -2.5 0.25 0  -2.240776699029126 0.6856416868932038 0  -1.775 0.28515625 0  -1.71875 0.75 0  6.175258823208043 0.5886645441611957 0  4.261643629807693 0.7109374999999998 0  4.667893629807693 0.7031250000000002 0  1.824167367109634 0.2409531602990362 0  2.636686615214766 0.2555772588321514 0  1.38325552388875 0.2649704395311445 0  -0.46875 0.7446632922535211 0  3.449201796915416 0.2704128103983777 0  2.203202991433102 0.2729232708226779 0  4.261712450328808 0.2854838329019752 0  3.023283383806745 0.2808786583609286 0  3.843540099517909 0.288837436732593 0  0.6331235396611878 0.7683768130429148 0  0.6054339511832376 0.2166532884716425 0  6.256771799991964 0.3317884692185022 0  -0.2486470253814554 0.5949878961267605 0  -1.984670937186905 0.7576275392581842 0  11.2265625 0.3912760416666667 0  11.7421875 0.3912760416666667 0  -1.036405127827206 0.2643561701079966 0  10.78053977272727 0.6725260416666666 0  8.734375 0.3125 0  8.390625 0.3125 0  7.359375 0.3125 0  7.015625 0.3125 0  10.109375 0.3125 0  9.765625 0.3125 0  6.671875 0.3125 0  6.655539772727273 0.6725260416666669 0  11.78555345556989 0.6484760842723984 0  9.405539772727273 0.6725260416666666 0  9.094460227272727 0.6725260416666666 0  10.46946022727273 0.6725260416666666 0  11.140625 0.6875 0  8.030539772727273 0.6725260416666666 0  7.719460227272728 0.6725260416666666 0  -2.277018229166667 0.375 0  -0.2686215753424658 0.2654644691780822 0  0.7924173055676504 0.3931430043056919 0  -2.5 0.75 0  -1.525008560462654 0.2496950333675564 0  7.703125 0.2975260416666667 0  8.046875 0.2975260416666666 0  10.453125 0.2975260416666667 0  10.81190567787247 0.3125 0  9.078125 0.2975260416666667 0  9.421875 0.2975260416666666 0  10.12440567787247 0.6875 0  9.765625 0.7024739583333333 0  7.374405677872475 0.6875 0  7.015625 0.7024739583333333 0  8.749405677872474 0.6875 0  8.390625 0.7024739583333333 0  1.115551444307063 0.7401777158454262 0  5.28922999544003 0.360801083570939 0  5.078125 0.09765625 0  5.078125 -0.09765625 0  5.664767392260801 0.3650917682044265 0  -1.479229041916168 0.7258724738023952 0  -1.029665898617512 0.7685681883640553 0  0.203125 0.00390625 0  0.203125 -0.00390625 0  6.296875 0.12109375 0  6.296875 -0.12109375 0  -2.00322265625 0.205078125 0  -0.6971783980582524 0.5236271237864077 0  -0.546875 0.22265625 0  -1.801855111236272 0.5242311804773303 0  5.484375 0.10546875 0  5.890625 -0.11328125 0  5.890625 0.11328125 0  4.903633313301282 0.6699100680171115 0  5.260369462255295 0.6544725809557483 0  4.972693810096154 0.296875 0  4.671875 0.08984375 0  4.671875 -0.08984375 0  5.078125 0.90234375 0  4.265625 -0.08203125 0  4.265625 0.08203125 0  6.03259461594712 0.3328645427790781 0  5.890625 0.88671875 0  5.692656615207549 0.6488796598294736 0  6.296875 0.87890625 0  3.859375 0.07421875 0  3.859375 -0.07421875 0  4.561082497482947 0.2948209397629855 0  2.036725213111611 0.7135654082038703 0  3.453125 0.06640625 0  3.453125 -0.06640625 0  11.828125 0.125 0  11.828125 -0.125 0  11.484375 0.125 0  11.484375 -0.125 0  9.078125 0.125 0  9.078125 -0.125 0  8.734375 0.125 0  8.734375 -0.125 0  8.390625 0.125 0  8.390625 -0.125 0  8.046875 0.125 0  8.046875 -0.125 0  7.703125 0.125 0  7.703125 -0.125 0  7.359375 0.125 0  7.359375 -0.125 0  7.015625 0.125 0  7.015625 -0.125 0  6.671875 0.125 0  6.671875 -0.125 0  11.140625 0.125 0  11.140625 -0.125 0  10.796875 0.125 0  10.796875 -0.125 0  10.453125 0.125 0  10.453125 -0.125 0  10.109375 0.125 0  10.109375 -0.125 0  9.765625 0.125 0  9.765625 -0.125 0  9.421875 0.125 0  9.421875 -0.125 0  3.046875 0.05859375 0  3.046875 -0.05859375 0  2.846431093850899 0.7350694856199397 0  2.640625 -0.05078125 0  2.640625 0.05078125 0  0.203125 0.99609375 0  6.362699038303388 0.6807243972366781 0  2.234375 0.04296875 0  2.234375 -0.04296875 0  11.581701212888 0.6822801732596659 0  11.35203598484848 0.6662326388888888 0  1.828125 0.03515625 0  1.828125 -0.03515625 0  5.984553033425814 0.6914815580202875 0  1.822525515412832 0.4475696738977717 0  1.41733060903937 0.5025442175645189 0  1.588893519464248 0.2357861358511414 0  3.654445727495178 0.7241715610932831 0  -0.2708370651139332 0.7990289667308481 0  1.421875 0.02734375 0  1.421875 -0.02734375 0  5.484375 0.89453125 0  2.633855454650776 0.460690271159621 0  2.40795634504651 0.2507007772874862 0  2.225403489025307 0.476130253335854 0  1.015625 -0.01953125 0  1.015625 0.01953125 0  3.227321013248274 0.265830895248878 0  3.445567521085816 0.4744107463092357 0  3.038321171612397 0.4840806912614364 0  0.609375 0.01171875 0  0.609375 -0.01171875 0  4.257720382725849 0.4888191036475296 0  4.047058936483319 0.2812008669921838 0  3.851174586896061 0.4920378211671812 0  0.609375 0.98828125 0  4.464694218296445 0.7031618514150944 0  4.671875 0.91015625 0  4.265625 0.91796875 0  3.453125 0.93359375 0  3.859375 0.92578125 0  2.640625 0.94921875 0  3.046875 0.94140625 0  2.234375 0.95703125 0  1.828125 0.96484375 0  1.421875 0.97265625 0  1.015625 0.98046875 0  5.484375 -0.10546875 0  4.060661963989729 0.6870321141431521 0  -2.34375 0 0  -2.34375 1 0  1.003521337202078 0.4664537109579014 0  3.646922073215719 0.2678295141073984 0  3.253141618048695 0.6711470624742265 0  0.3013894287350291 0.1773590807784885 0  -1.124347644480009 0.4398459561477482 0  2.831246172847781 0.248957659490205 0  2.446473427278441 0.6570274073729461 0  -2.198800970885971 0.1954869700666445 0  2.01591648071966 0.2304840455985115 0  0.827600060761903 0.2057214409193794 0  1.640609275971101 0.6442729681322822 0  -0.15625 0 0  6.483664772727272 0.3124999999999999 0  5.477125710212377 0.3518294601818938 0  11.41161533959385 0.3125 0  12 0.3125 0  11.04150966040615 0.3125 0  12 0.6875 0  1.198054295914707 0.2143210783083181 0  -1.40625 0 0  0.9109798103993655 0.8221220157670066 0  5.845812869360681 0.3162425406240469 0  0.4667569911039429 0.6726473502422988 0  0.4593425712678239 0.3353704711440587 0  8.211153274166278 0.6806358075271245 0  9.586153274166278 0.6806358075271245 0  6.835007346992159 0.6944141097550816 0  6.663707386363637 0.4925130208333334 0  10.96058238636364 0.680013020833333 0  -1.40625 1 0  -1.320649221029402 0.826171875 0  5.082724050007036 0.6788909168133963 0  -0.1275597151206816 0.375 0  0.7018834652202378 0.6003751687871122 0  -1.71875 0 0  5.523196914803937 0.7163232589905226 0  0.3602612407862962 0.5307539682539683 0  0.1786479052710517 0.5327459553507268 0  1.289006631999016 0.8051714473419221 0  -1.328125 0.156663781811377
[...]
<PointData  Vectors="displacement"> 
<DataArray  type="Float64"  Name="displacement"  NumberOfComponents="3" format="ascii">0.0000000000000000e+00 0.0000000000000000e+00 0.0000000000000000e+00  -2.0562860777888965e-03 1.5211600321685972e-01 0.0000000000000000e+00  -3.5455301899272747e-03 2.8009829646762041e-01 0.0000000000000000e+00  -3.5374576177930783e-03 2.7973982555906507e-01 0.0000000000000000e+00  -2.0482135056904042e-03 1.5175753230831029e-01 0.0000000000000000e+00  0.0000000000000000e+00 0.0000000000000000e+00 0.0000000000000000e+00  -3.5132399013863731e-03 2.7866441283339910e-01 0.0000000000000000e+00  -2.0239957891996620e-03 1.5068211958252176e-01 0.0000000000000000e+00  1.8794609893727483e-03 -5.8060725330102189e-02 0.0000000000000000e+00  1.8794609893727483e-03 -5.8060725330102189e-02 0.0000000000000000e+00  -1.1702263622926259e-03 7.6221252074821041e-02 0.0000000000000000e+00  -1.1419771409617227e-03 7.4966596250985604e-02 0.0000000000000000e+00  -1.1742660643246599e-03 7.6400488200211503e-02 0.0000000000000000e+00  -2.7928355617316833e-03 2.1574867893363919e-01 0.0000000000000000e+00  -2.7686178453186711e-03 2.1467326620797292e-01 0.0000000000000000e+00  -2.8009081338675932e-03 2.1610714984219490e-01 0.0000000000000000e+00  -7.3167241780994045e-04 3.8452444564792250e-02 0.0000000000000000e+00  -7.0193677730713848e-04 3.7109283808060410e-02 0.0000000000000000e+00  -7.3385343518854245e-04 3.8542183134190541e-02 0.0000000000000000e+00  -1.5829827933441730e-03 1.1282436040895033e-01 0.0000000000000000e+00  -1.6092186399673915e-03 1.1398939091647881e-01 0.0000000000000000e+00  -1.6152730813755376e-03 1.1425824409881023e-01 0.0000000000000000e+00  -2.4205245336988558e-03 1.8375310562093583e-01 0.0000000000000000e+00  -2.3963068172812929e-03 1.8267769289527103e-01 0.0000000000000000e+00  -2.4285971058381887e-03 1.8411157652949145e-01 0.0000000000000000e+00  -3.1409288733527576e-03 2.4666883952068400e-01 0.0000000000000000e+00  -3.1651465897623481e-03 2.4774425224634991e-01 0.0000000000000000e+00  -3.1732191618969291e-03 2.4810272315490542e-01 0.0000000000000000e+00  8.3953807792531510e-04 -2.9035575971238660e-02 0.0000000000000000e+00  8.3953807792531510e-04 -2.9035575971238660e-02 0.0000000000000000e+00  -5.1277881469366233e-04 1.9586768445935692e-02 0.0000000000000000e+00  -4.7780040822602358e-04 1.8161044126778290e-02 0.0000000000000000e+00  -5.1402047359948245e-04 1.9630771495033374e-02 0.0000000000000000e+00  -9.2136255018555370e-04 5.6037750352365516e-02 0.0000000000000000e+00  -9.5068408743776540e-04 5.7337180051883992e-02 0.0000000000000000e+00  -9.5367835034296385e-04 5.7471595774048929e-02 0.0000000000000000e+00  -1.3897210782485632e-03 9.5105319885107731e-02 0.0000000000000000e+00  -1.3624758427878175e-03 9.3895481333487504e-02 0.0000000000000000e+00  -1.3947661879347357e-03 9.5329364173540751e-02 0.0000000000000000e+00  -1.8287160700584388e-03 1.3287346159932550e-01 0.0000000000000000e+00  -1.8034892821047405e-03 1.3175324001313729e-01 0.0000000000000000e+00  -1.8357795705124802e-03 1.3318712364433874e-01 0.0000000000000000e+00  1.3595523866389663e-03 -4.3548142823212871e-02 0.0000000000000000e+00  1.3595523866389663e-03 -4.3548142823212871e-02 0.0000000000000000e+00  3.1721415154281911e-04 -1.4523900347849296e-02 0.0000000000000000e+00  3.1721415154281911e-04 -1.4523900347849296e-02 0.0000000000000000e+00  -2.5824623313008342e-03 1.9867547955162015e-01 0.0000000000000000e+00  -2.6066800477163401e-03 1.9975089227728671e-01 0.0000000000000000e+00  -2.6147526198528914e-03 2.0010936318584255e-01 0.0000000000000000e+00  -2.2343690196821027e-03 1.6775531896459014e-01 0.0000000000000000e+00  -2.2101513032747127e-03 1.6667990623891726e-01 0.0000000000000000e+00  -2.2424415918337027e-03 1.6811378987314804e-01 0.0000000000000000e+00  -3.3513021037776089e-03 2.6374203890270720e-01 0.0000000000000000e+00  -3.3270843873689335e-03 2.6266662617704134e-01 0.0000000000000000e+00  -3.3593746759120846e-03 2.6410050981126265e-01 0.0000000000000000e+00  -2.9789910757470521e-03 2.3174646558999368e-01 0.0000000000000000e+00  -2.9547733593360604e-03 2.3067105286432771e-01 0.0000000000000000e+00  -2.9870636478822187e-03 2.3210493649854930e-01 0.0000000000000000e+00  -2.7086126733197986e-04 -1.5381169859193836e-05 0.0000000000000000e+00  -6.0034130205074683e-04 2.8114070080417684e-02 0.0000000000000000e+00  -8.2377971260351294e-04 4.7028012852093917e-02 0.0000000000000000e+00  -1.0437804260554834e-03 6.5941408482142444e-02 0.0000000000000000e+00  -1.2638595720603270e-03 8.4854882286470312e-02 0.0000000000000000e+00  5.8164030085327927e-04 -2.1778678585301248e-02 0.0000000000000000e+00  1.0994533632090594e-03 -3.6291923495047826e-02 0.0000000000000000e+00  1.8794714215766921e-03 -5.8060721412998291e-02 0.0000000000000000e+00  -1.4839437023267466e-03 1.0376834902964990e-01 0.0000000000000000e+00  -1.7189673527811173e-03 1.2343142624734914e-01 0.0000000000000000e+00  -1.6932360362610088e-03 1.2228880022279535e-01 0.0000000000000000e+00  -1.7255263230697298e-03 1.2372268386157996e-01 0.0000000000000000e+00  -1.9137425353055826e-03 1.4121767979742755e-01 0.0000000000000000e+00  -1.9384647880103854e-03 1.4231549695430412e-01 0.0000000000000000e+00  -1.9460328239668736e-03 1.4265156343099208e-01 0.0000000000000000e+00  -2.6876489465001616e-03 2.0721207924263166e-01 0.0000000000000000e+00  -2.3153379184630866e-03 1.7521650592993276e-01 0.0000000000000000e+00  -2.5014934324692913e-03 1.9121429258628159e-01 0.0000000000000000e+00  -2.1291824044525854e-03 1.5921871927356776e-01 0.0000000000000000e+00  -3.0599599745185831e-03 2.3920765255534160e-01 0.0000000000000000e+00  -3.2461154885396934e-03 2.5520543921169753e-01 0.0000000000000000e+00  -3.5253487595896830e-03 2.7920211919623217e-01 0.0000000000000000e+00  -2.8738044605077632e-03 2.2320986589898603e-01 0.0000000000000000e+00  -4.6838073499620426e-04 1.2778395377547607e-02 0.0000000000000000e+00  1.8310157218844351e-04 -1.0900625113556349e-02 0.0000000000000000e+00  1.4895167826719919e-03 -4.7176297651106862e-02 0.0000000000000000e+00  -1.6490061282862193e-03 1.1795344942772673e-01 0.0000000000000000e+00  -1.8690894678200227e-03 1.3686691661066316e-01 0.0000000000000000e+00  -1.4994699128163197e-03 1.0454735557806363e-01 0.0000000000000000e+00  -1.5050197567989623e-03 1.0479380431235151e-01 0.0000000000000000e+00  -1.2845134260702166e-03 8.5864923733141876e-02 0.0000000000000000e+00  -1.2799724296396213e-03 8.5663283692188133e-02 0.0000000000000000e+00  -1.0604806969907621e-03 6.6779236931534799e-02 0.0000000000000000e+00  -1.0640164288801214e-03 6.6936066900987620e-02 0.0000000000000000e+00  -8.4320634644496353e-04 4.8006808879208628e-02 0.0000000000000000e+00  -8.4078337168212107e-04 4.7894786732257943e-02 0.0000000000000000e+00  -6.2599926790548439e-04 2.9015448876409604e-02 0.0000000000000000e+00  -6.2870798297059343e-04 2.9082843208781243e-02 0.0000000000000000e+00  -1.3743951832400879e-03 9.4333509449010838e-02 0.0000000000000000e+00  -1.1547853610194675e-03 7.5441272462799705e-02 0.0000000000000000e+00  -7.1454555855922440e-04 3.7654722572861309e-02 0.0000000000000000e+00  -1.7577581597663155e-03 1.2735291523294018e-01 0.0000000000000000e+00  -9.3524391512412751e-04 5.6548343359081030e-02 0.0000000000000000e+00  -3.1931792290042650e-04 1.0092105790267166e-02 0.0000000000000000e+00  -3.1371639542051742e-04 1.0112369568602704e-02 0.0000000000000000e+00  -2.6352270234315144e-04 8.7753967990688818e-03 0.0000000000000000e+00  -1.4727294427684516e-03 1.0335992063936054e-01 0.0000000000000000e+00  -1.2522234482522129e-03 8.4431042120678174e-02 0.0000000000000000e+00  -1.0317243340536234e-03 6.5502134928259348e-02 0.0000000000000000e+00  -8.1089451810444253e-04 4.6573752537024490e-02 0.0000000000000000e+00  -5.9749034284434395e-04 2.7637837494966091e-02 0.0000000000000000e+00  -3.4201621443767684e-03 2.7066551950522016e-01 0.0000000000000000e+00  -3.3857321240620838e-03 2.6720377920396454e-01 0.0000000000000000e+00  -2.0272584144091881e-03 1.5045960054641325e-01 0.0000000000000000e+00  -2.8939858908749007e-03 2.2410604317037189e-01 0.0000000000000000e+00  -2.8859133187393990e-03 2.2374757226181621e-01 0.0000000000000000e+00  -3.0801414048895570e-03 2.4010382982672712e-01 0.0000000000000000e+00  -3.0720688327546550e-03 2.3974535891817156e-01 0.0000000000000000e+00  -3.2662969189044665e-03 2.5610161648308394e-01 0.0000000000000000e+00  -3.2582243467699900e-03 2.5574314557452849e-01 0.0000000000000000e+00  -2.1493638348440186e-03 1.6011489654500488e-01 0.0000000000000000e+00  -2.1412912626775690e-03 1.5975642563644349e-01 0.0000000000000000e+00  -2.3355193488316241e-03 1.7611268320131598e-01 0.0000000000000000e+00  -2.3274467766920813e-03 1.7575421229276009e-01 0.0000000000000000e+00  -2.5216748628453184e-03 1.9211046985766711e-01 0.0000000000000000e+00  -2.5136022907085928e-03 1.9175199894911127e-01 0.0000000000000000e+00  -2.7078303768602410e-03 2.0810825651401846e-01 0.0000000000000000e+00  -2.6997578047240427e-03 2.0774978560546270e-01 0.0000000000000000e+00  -3.4524524329196909e-03 2.7209940313944153e-01 0.0000000000000000e+00  -3.4443798607852760e-03 2.7174093223088613e-01 0.0000000000000000e+00  8.6948686261328900e-05 -7.2644100498132549e-03 0.0000000000000000e+00  1.6194942269510048e-03 -5.0804441025892662e-02 0.0000000000000000e+00  -2.7816937303785684e-03 2.1525391439839531e-01 0.0000000000000000e+00  -2.8616956023274544e-03 2.2267215953615008e-01 0.0000000000000000e+00  -2.9659151906511394e-03 2.3116581739957598e-01 0.0000000000000000e+00  -3.1540047584124931e-03 2.4724948771110569e-01 0.0000000000000000e+00  -3.2340066303608380e-03 2.5466773284886240e-01 0.0000000000000000e+00  -3.0478511163443797e-03 2.3866994619250545e-01 0.0000000000000000e+00  -2.1170735462801692e-03 1.5868101291071030e-01 0.0000000000000000e+00  -2.2212931345909123e-03 1.6717467077416892e-01 0.0000000000000000e+00  -2.4093827023409864e-03 1.8325834108569342e-01 0.0000000000000000e+00  -2.4893845742912655e-03 1.9067658622344480e-01 0.0000000000000000e+00  -2.5936041626197625e-03 1.9917024408686818e-01 0.0000000000000000e+00  -2.3032290602733652e-03 1.7467879956709817e-01 0.0000000000000000e+00  -2.6755400883098396e-03 2.0667437287979626e-01 0.0000000000000000e+00  -5.1383386108144887e-04 2.0242631637760366e-02 0.0000000000000000e+00  1.6194942269510048e-03 -5.0804441025892662e-02 0.0000000000000000e+00  8.6948686261328900e-05 -7.2644100498132549e-03 0.0000000000000000e+00  -2.3269841999354668e-04 7.5194610844344628e-05 0.0000000000000000e+00  -3.8692603050158553e-04 6.1846973979539973e-03 0.0000000000000000e+00  -5.5819579704404485e-04 2.3850963934795109e-02 0.0000000000000000e+00  -6.6042521707359149e-04 3.3336333938278354e-02 0.0000000000000000e+00  8.3949322564262901e-04 -2.9035990039894270e-02 0.0000000000000000e+00  8.6833268275892782e-04 -2.9833396512012257e-02 0.0000000000000000e+00  1.0996876540044643e-03 -3.6291805165081369e-02 0.0000000000000000e+00  1.0996876540044643e-03 -3.6291805165081369e-02 0.0000000000000000e+00  5.7765340222483560e-04 -2.1779891691521492e-02 0.0000000000000000e+00  5.7765340222483560e-04 -2.1779891691521492e-02 0.0000000000000000e+00  -7.6220686090903804e-04 4.2069115171187221e-02 0.0000000000000000e+00  -8.7883065828486904e-04 5.2042886173541837e-02 0.0000000000000000e+00  -1.5698174618267147e-03 1.1100932961689174e-01 0.0000000000000000e+00  -4.1792100278336509e-04 6.5078844949308153e-03 0.0000000000000000e+00  -1.0965615149153198e-03 7.0755357356793544e-02 0.0000000000000000e+00  -9.8262700418942400e-04 6.0989537104104576e-02 0.0000000000000000e+00  -1.3143804671412608e-03 8.9474082830232338e-02 0.0000000000000000e+00  -1.2029148138615296e-03 7.9910742189753414e-02 0.0000000000000000e+00  4.4997530057656703e-04 -1.8149032722806841e-02 0.0000000000000000e+00  4.4926644387175866e-04 -1.8153315125127613e-02 0.0000000000000000e+00  -2.2459865005883224e-04 -9.8136232979109526e-05 0.0000000000000000e+00  1.8794669436897210e-03 -5.8060718934891266e-02 0.0000000000000000e+00  1.6638254278173177e-03 -5.2041523199553803e-02 0.0000000000000000e+00  1.2763224028570623e-03 -4.1226171467158922e-02 0.0000000000000000e+00  1.2295644886663594e-03 -3.9919986008350256e-02 0.0000000000000000e+00  -1.9453109373901722e-03 1.4353612393962845e-01 0.0000000000000000e+00  -1.4232099458936197e-03 9.8831915022478498e-02 0.0000000000000000e+00  -1.5334632124982626e-03 1.0829635469702670e-01 0.0000000000000000e+00  -7.7824628521817407e-04 4.2786382667265387e-02 0.0000000000000000e+00  -9.9793766001067107e-04 6.1672921456017139e-02 0.0000000000000000e+00  -6.5718521715562043e-04 3.2493237444768439e-02 0.0000000000000000e+00  1.9240168896412035e-04 -1.0878832844936612e-02 0.0000000000000000e+00  -1.2174468944130439e-03 8.0558453987993578e-02 0.0000000000000000e+00  -8.8004598105848356e-04 5.1560985781132496e-02 0.0000000000000000e+00  -1.4369667177563648e-03 9.9443567402436900e-02 0.0000000000000000e+00  -1.1017816723521479e-03 7.0632543168863929e-02 0.0000000000000000e+00  -1.3236290586921048e-03 8.9708093501322778e-02 0.0000000000000000e+00  -4.4293049898645639e-04 1.4298556994634481e-02 0.0000000000000000e+00  -4.5534682669842876e-04 1.4477816357282772e-02 0.0000000000000000e+00  -1.9756769438139406e-03 1.4580122119371000e-01 0.0000000000000000e+00  -2.8260531159805569e-05 -5.7842343821181775e-03 0.0000000000000000e+00  1.4507801496179626e-03 -4.6094702265653056e-02 0.0000000000000000e+00  -3.3194345342987476e-03 2.6136050671233213e-01 0.0000000000000000e+00  -3.4590511698086176e-03 2.7335884670460042e-01 0.0000000000000000e+00  6.6226116895790196e-04 -2.4075166511227163e-02 0.0000000000000000e+00  -3.1895825778354525e-03 2.5057849758050438e-01 0.0000000000000000e+00  -2.6471644971054458e-03 2.0348148575995934e-01 0.0000000000000000e+00  -2.5540867400921400e-03 1.9548259243178409e-01 0.0000000000000000e+00  -2.2748534690732558e-03 1.7148591244725936e-01 0.0000000000000000e+00  -2.1817757120581411e-03 1.6348701911908994e-01 0.0000000000000000e+00  -3.0194755251300633e-03 2.3547705907266769e-01 0.0000000000000000e+00  -2.9263977681222102e-03 2.2747816574449026e-01 0.0000000000000000e+00  -2.0886979550791616e-03 1.5548812579092924e-01 0.0000000000000000e+00  -2.0726494937494790e-03 1.5459177764233276e-01 0.0000000000000000e+00  -3.4624883778558782e-03 2.7399915621694176e-01 0.0000000000000000e+00  -2.8172715497955698e-03 2.1858292426779358e-01 0.0000000000000000e+00  -2.7330400258929162e-03 2.1134425633857584e-01 0.0000000000000000e+00  -3.1053510539208592e-03 2.4333982965128625e-01 0.0000000000000000e+00  -3.2865999379640357e-03 2.5893603269436849e-01 0.0000000000000000e+00  -2.4449605217483641e-03 1.8658735095509207e-01 0.0000000000000000e+00  -2.3607289978468489e-03 1.7934868302587703e-01 0.0000000000000000e+00  1.6939738504402645e-03 -5.2883059864430329e-02 0.0000000000000000e+00  1.6896149231584063e-05 -6.2619451349978632e-03 0.0000000000000000e+00  -5.0342967109636013e-04 1.8567991008992736e-02 0.0000000000000000e+00  1.8794654511187954e-03 -5.8060727784422499e-02 0.0000000000000000e+00  1.0684058575452556e-03 -3.5421239218368386e-02 0.0000000000000000e+00  -2.3684147395089459e-03 1.7950627668922742e-01 0.0000000000000000e+00  -2.4614924965211042e-03 1.8750517001740238e-01 0.0000000000000000e+00  -3.1130367955711142e-03 2.4349742331463933e-01 0.0000000000000000e+00  -3.2097009207005867e-03 2.5182460220597530e-01 0.0000000000000000e+00  -2.7407257675520682e-03 2.1150185000192889e-01 0.0000000000000000e+00  -2.8338035245564575e-03 2.1950074333010611e-01 0.0000000000000000e+00  -3.0114365484735289e-03 2.3528910918678700e-01 0.0000000000000000e+00  -2.9138053964787767e-03 2.2691898846786435e-01 0.0000000000000000e+00  -2.2668144924092512e-03 1.7129796256138138e-01 0.0000000000000000e+00  -2.1691833404300295e-03 1.6292784184244541e-01 0.0000000000000000e+00  -2.6391255204449931e-03 2.0329353587407814e-01 0.0000000000000000e+00  -2.5414943684425439e-03 1.9492341515515757e-01 0.0000000000000000e+00  -5.7071778268223358e-04 2.5574313368458886e-02 0.0000000000000000e+00  -1.7127572158803757e-03 1.2324539885136186e-01 0.0000000000000000e+00  -1.6640929956788166e-03 1.1871040857790695e-01 0.0000000000000000e+00  -1.6703997034004999e-03 1.1899046397694511e-01 0.0000000000000000e+00  -1.8143035557324769e-03 1.3197781691709279e-01 0.0000000000000000e+00  1.0302334557972135e-03 -3.4358429437619027e-02 0.0000000000000000e+00  6.5593165575804032e-04 -2.3920102076238407e-02 0.0000000000000000e+00  -1.5822869203423895e-04 5.2342812370985052e-03 0.0000000000000000e+00  -1.5021702492043156e-04 5.2440579203025259e-03 0.0000000000000000e+00  -1.9933391468658110e-03 1.4703651463139120e-01 0.0000000000000000e+00  -2.0011594509374161e-03 1.4738378332401736e-01 0.0000000000000000e+00  1.4661929204992233e-03 -4.6525514111945727e-02 0.0000000000000000e+00  3.8323452204798848e-04 -1.6197242393404476e-02 0.0000000000000000e+00  2.5325972213094709e-04 -1.2720406478361196e-02 0.0000000000000000e+00  1.2986558382790875e-03 -4.1849729865284076e-02 0.0000000000000000e+00  -1.7738417111170116e-03 1.2815244392218633e-01 0.0000000000000000e+00  -1.8909061970013249e-03 1.3791934353770888e-01 0.0000000000000000e+00  -1.8835904290743859e-03 1.3759447927693011e-01 0.0000000000000000e+00  -1.5983673514938796e-03 1.1382952748729440e-01 0.0000000000000000e+00  -1.6954598676267453e-03 1.2215273769238028e-01 0.0000000000000000e+00  -1.6291123794715779e-03 1.1597142016925772e-01 0.0000000000000000e+00  -1.5543442820675291e-03 1.0926837325839187e-01 0.0000000000000000e+00  -1.5601464417726325e-03 1.0952602421972364e-01 0.0000000000000000e+00  -1.6381094171100099e-03 1.1755658031934017e-01 0.0000000000000000e+00  -1.4498929975836142e-03 1.0006158431807501e-01 0.0000000000000000e+00  -1.4445955140299097e-03 9.9826337812639443e-02 0.0000000000000000e+00  -1.9149413696625155e-03 1.4058318548236132e-01 0.0000000000000000e+00  -1.8586159083688969e-03 1.3648545990528640e-01 0.0000000000000000e+00  -1.8126915741587517e-03 1.3221986659803966e-01 0.0000000000000000e+00  -1.9688691623129962e-03 1.4594989968985730e-01 0.0000000000000000e+00  -1.3348466506339614e-03 9.0384301758517041e-02 0.0000000000000000e+00  -1.3396395030556808e-03 9.0597143877535549e-02 0.0000000000000000e+00  -1.5177260684249784e-03 1.0639637279320685e-01 0.0000000000000000e+00  -8.2066686421689993e-04 4.7055734850160659e-02 0.0000000000000000e+00  -1.2250988521849229e-03 8.0942266541226007e-02 0.0000000000000000e+00  -1.2293887483331440e-03 8.1132704630331967e-02 0.0000000000000000e+00  -3.4909187392909362e-03 2.7574037889497544e-01 0.0000000000000000e+00  -3.4989913114234624e-03 2.7609884980353094e-01 0.0000000000000000e+00  -3.3978409822814446e-03 2.6774148556679661e-01 0.0000000000000000e+00  -3.4059135544158947e-03 2.6809995647535201e-01 0.0000000000000000e+00  -2.7462966832278858e-03 2.1174923226955086e-01 0.0000000000000000e+00  -2.7543692553639110e-03 2.1210770317810657e-01 0.0000000000000000e+00  -2.6532189262201944e-03 2.0375033894137468e-01 0.0000000000000000e+00  -2.6612914983565879e-03 2.0410880984993043e-01 0.0000000000000000e+00  -2.5601411692124433e-03 1.9575144561319890e-01 0.0000000000000000e+00  -2.5682137413491446e-03 1.9610991652175475e-01 0.0000000000000000e+00  -2.4670634122046578e-03 1.8775255228502352e-01 0.0000000000000000e+00  -2.4751359843413283e-03 1.8811102319357931e-01 0.0000000000000000e+00  -2.3739856551956164e-03 1.7975365895684781e-01 0.0000000000000000e+00  -2.3820582273344020e-03 1.8011212986540348e-01 0.0000000000000000e+00  -2.2809078981865911e-03 1.7175476562867362e-01 0.0000000000000000e+00  -2.2889804703310436e-03 1.7211323653723010e-01 0.0000000000000000e+00  -2.1878301411776034e-03 1.6375587230051261e-01 0.0000000000000000e+00  -2.1959027133395632e-03 1.6411434320907239e-01 0.0000000000000000e+00  -2.0947523841815139e-03 1.5575697897238014e-01 0.0000000000000000e+00  -2.1028249563351253e-03 1.5611544988094059e-01 0.0000000000000000e