<?xml version="1.0"?>
<VTKFile type="UnstructuredGrid"  version="0.1"  >
<UnstructuredGrid>
<Piece  NumberOfPoints="6614" NumberOfCells="12519">
<Points>
<DataArray  type="Float64"  NumberOfComponents="3"  format="ascii">0 0 0  6.5 -0.125 0  12 -0.125 0  12 0.125 0  6.5 0.125 0  0 1 0  12 0.875 0  6.5 0.875 0  -2.5 1 0  -2.5 0 0  3.25 0.0625 0  3.25 0.9375 0  3.25 -0.0625 0  9.25 0.125 0  9.25 0.875 0  9.25 -0.125 0  1.625 0.03125 0  1.625 0.96875 0  1.625 -0.03125 0  4.875 0.90625 0  4.875 0.09375 0  4.875 -0.09375 0  7.875 0.125 0  7.875 0.875 0  7.875 -0.125 0  10.625 0.875 0  10.625 0.125 0  10.625 -0.125 0  -1.25 1 0  -1.25 0 0  0.8125 0.015625 0  0.8125 0.984375 0  0.8125 -0.015625 0  2.4375 0.953125 0  2.4375 0.046875 0  2.4375 -0.046875 0  4.0625 0.078125 0  4.0625 0.921875 0  4.0625 -0.078125 0  5.6875 0.109375 0  5.6875 0.890625 0  5.6875 -0.109375 0  -1.875 0 0  -1.875 1 0  -0.625 0 0  -0.625 1 0  8.5625 0.875 0  8.5625 0.125 0  8.5625 -0.125 0  7.1875 0.125 0  7.1875 0.875 0  7.1875 -0.125 0  11.3125 0.125 0  11.3125 0.875 0  11.3125 -0.125 0  9.9375 0.125 0  9.9375 0.875 0  9.9375 -0.125 0  0 0.5 0  1.209585336538462 0.5 0  2.022385817307693 0.5 0  2.835186298076923 0.5 0  3.647986778846154 0.5 0  -0.9375 0.5 0  -1.5625 0.5 0  -2.5 0.5 0  4.460787259615385 0.5 0  5.28125 0.1015625 0  5.28125 0.8984375 0  5.28125 -0.1015625 0  6.09375 0.8828125 0  6.09375 0.1171875 0  6.09375 -0.1171875 0  8.90625 0.5 0  7.53125 0.5 0  8.21875 0.5 0  6.84375 0.5 0  10.28125 0.5 0  10.96875 0.5 0  12 0.5 0  9.59375 0.5 0  0.5506310096153846 0.5 0  -0.46875 0.4453125 0  -2.03125 0.4453125 0  5.070387620192307 0.5 0  5.883188100961538 0.5 0  4.46875 0.0859375 0  4.46875 -0.0859375 0  3.65625 -0.0703125 0  3.65625 0.0703125 0  2.84375 0.0546875 0  2.84375 -0.0546875 0  2.03125 -0.0390625 0  2.03125 0.0390625 0  1.21875 0.0234375 0  1.21875 -0.0234375 0  4.054387019230769 0.4847310450995098 0  3.241586538461538 0.4699247074852732 0  1.615985576923077 0.4417102219320143 0  5.476787860576923 0.53993893765092 0  2.428786057692307 0.4556005042418 0  0.40625 0.0078125 0  0.40625 -0.0078125 0  0.40625 0.9921875 0  4.46875 0.9140625 0  3.65625 0.9296875 0  2.84375 0.9453125 0  2.03125 0.9609375 0  1.21875 0.9765625 0  11.65625 0.875 0  11.484375 0.5 0  6.467329545454546 0.5 0  9.59375 -0.125 0  9.59375 0.125 0  10.28125 -0.125 0  10.28125 0.125 0  10.96875 -0.125 0  10.96875 0.125 0  6.84375 -0.125 0  6.84375 0.125 0  7.53125 -0.125 0  7.53125 0.125 0  8.21875 -0.125 0  8.21875 0.125 0  8.90625 -0.125 0  8.90625 0.125 0  11.65625 -0.125 0  11.65625 0.125 0  -0.3125 1 0  -2.1875 1 0  9.25 0.4700520833333333 0  9.59375 0.875 0  9.9375 0.5299479166666666 0  10.625 0.4700520833333333 0  10.96875 0.875 0  10.28125 0.875 0  6.84375 0.875 0  7.1875 0.5299479166666666 0  7.875 0.4700520833333333 0  8.21875 0.875 0  8.5625 0.5299479166666666 0  7.53125 0.875 0  8.90625 0.875 0  0.8801081730769231 0.63484883039911 0  -2.1875 0 0  -0.3125 0 0  0 0.25 0  0.2753155048076923 0.6865079365079365 0  1.011042668269231 0.2578125 0  1.446827777824054 0.7082004557951647 0  -1.25 0.65234375 0  -1.284375 0.326171875 0  -1.5625 0 0  -1.5625 1 0  -0.9375 0 0  -0.9375 1 0  1.823692908653846 0.7343749999999999 0  2.250687166802934 0.7075583934794667 0  4.765587439903847 0.3964836665810265 0  0.2753155048076923 0.375 0  3.054829110674799 0.707148526758953 0  2.636343149038462 0.7265625000000001 0  3.859250973615127 0.7069998487229827 0  3.448993389423077 0.7187500000000001 0  -0.78125 0.75 0  -0.78125 0.25 0  0 0.75 0  -2.5 0.25 0  -2.240776699029126 0.6856416868932038 0  -1.775 0.28515625 0  -1.71875 0.75 0  6.175258823208043 0.5886645441611957 0  4.261643629807693 0.7109374999999998 0  4.667893629807693 0.7031250000000002 0  1.824167367109634 0.2409531602990362 0  2.636686615214766 0.2555772588321514 0  1.38325552388875 0.2649704395311445 0  -0.46875 0.7446632922535211 0  3.449201796915416 0.2704128103983777 0  2.203202991433102 0.2729232708226779 0  4.261712450328808 0.2854838329019752 0  3.023283383806745 0.2808786583609286 0  3.843540099517909 0.288837436732593 0  0.6331235396611878 0.7683768130429148 0  0.6054339511832376 0.2166532884716425 0  6.256771799991964 0.3317884692185022 0  -0.2486470253814554 0.5949878961267605 0  -1.984670937186905 0.7576275392581842 0  11.2265625 0.3912760416666667 0  11.7421875 0.3912760416666667 0  -1.036405127827206 0.2643561701079966 0  10.78053977272727 0.6725260416666666 0  8.734375 0.3125 0  8.390625 0.3125 0  7.359375 0.3125 0  7.015625 0.3125 0  10.109375 0.3125 0  9.765625 0.3125 0  6.671875 0.3125 0  6.655539772727273 0.6725260416666669 0  11.78555345556989 0.6484760842723984 0  9.405539772727273 0.6725260416666666 0  9.094460227272727 0.6725260416666666 0  10.46946022727273 0.6725260416666666 0  11.140625 0.6875 0  8.030539772727273 0.6725260416666666 0  7.719460227272728 0.6725260416666666 0  -2.277018229166667 0.375 0  -0.2686215753424658 0.2654644691780822 0  0.7924173055676504 0.3931430043056919 0  -2.5 0.75 0  -1.525008560462654 0.2496950333675564 0  7.703125 0.2975260416666667 0  8.046875 0.2975260416666666 0  10.453125 0.2975260416666667 0  10.81190567787247 0.3125 0  9.078125 0.2975260416666667 0  9.421875 0.2975260416666666 0  10.12440567787247 0.6875 0  9.765625 0.7024739583333333 0  7.374405677872475 0.6875 0  7.015625 0.7024739583333333 0  8.749405677872474 0.6875 0  8.390625 0.7024739583333333 0  1.115551444307063 0.7401777158454262 0  5.28922999544003 0.360801083570939 0  5.078125 0.09765625 0  5.078125 -0.09765625 0  5.664767392260801 0.3650917682044265 0  -1.479229041916168 0.7258724738023952 0  -1.029665898617512 0.7685681883640553 0  0.203125 0.00390625 0  0.203125 -0.00390625 0  6.296875 0.12109375 0  6.296875 -0.12109375 0  -2.00322265625 0.205078125 0  -0.6971783980582524 0.5236271237864077 0  -0.546875 0.22265625 0  -1.801855111236272 0.5242311804773303 0  5.484375 0.10546875 0  5.890625 -0.11328125 0  5.890625 0.11328125 0  4.903633313301282 0.6699100680171115 0  5.260369462255295 0.6544725809557483 0  4.972693810096154 0.296875 0  4.671875 0.08984375 0  4.671875 -0.08984375 0  5.078125 0.90234375 0  4.265625 -0.08203125 0  4.265625 0.08203125 0  6.03259461594712 0.3328645427790781 0  5.890625 0.88671875 0  5.692656615207549 0.6488796598294736 0  6.296875 0.87890625 0  3.859375 0.07421875 0  3.859375 -0.07421875 0  4.561082497482947 0.2948209397629855 0  2.036725213111611 0.7135654082038703 0  3.453125 0.06640625 0  3.453125 -0.06640625 0  11.828125 0.125 0  11.828125 -0.125 0  11.484375 0.125 0  11.484375 -0.125 0  9.078125 0.125 0  9.078125 -0.125 0  8.734375 0.125 0  8.734375 -0.125 0  8.390625 0.125 0  8.390625 -0.125 0  8.046875 0.125 0  8.046875 -0.125 0  7.703125 0.125 0  7.703125 -0.125 0  7.359375 0.125 0  7.359375 -0.125 0  7.015625 0.125 0  7.015625 -0.125 0  6.671875 0.125 0  6.671875 -0.125 0  11.140625 0.125 0  11.140625 -0.125 0  10.796875 0.125 0  10.796875 -0.125 0  10.453125 0.125 0  10.453125 -0.125 0  10.109375 0.125 0  10.109375 -0.125 0  9.765625 0.125 0  9.765625 -0.125 0  9.421875 0.125 0  9.421875 -0.125 0  3.046875 0.05859375 0  3.046875 -0.05859375 0  2.846431093850899 0.7350694856199397 0  2.640625 -0.05078125 0  2.640625 0.05078125 0  0.203125 0.99609375 0  6.362699038303388 0.6807243972366781 0  2.234375 0.04296875 0  2.234375 -0.04296875 0  11.581701212888 0.6822801732596659 0  11.35203598484848 0.6662326388888888 0  1.828125 0.03515625 0  1.828125 -0.03515625 0  5.984553033425814 0.6914815580202875 0  1.822525515412832 0.4475696738977717 0  1.41733060903937 0.5025442175645189 0  1.588893519464248 0.2357861358511414 0  3.654445727495178 0.7241715610932831 0  -0.2708370651139332 0.7990289667308481 0  1.421875 0.02734375 0  1.421875 -0.02734375 0  5.484375 0.89453125 0  2.633855454650776 0.460690271159621 0  2.40795634504651 0.2507007772874862 0  2.225403489025307 0.476130253335854 0  1.015625 -0.01953125 0  1.015625 0.01953125 0  3.227321013248274 0.265830895248878 0  3.445567521085816 0.4744107463092357 0  3.038321171612397 0.4840806912614364 0  0.609375 0.01171875 0  0.609375 -0.01171875 0  4.257720382725849 0.4888191036475296 0  4.047058936483319 0.2812008669921838 0  3.851174586896061 0.4920378211671812 0  0.609375 0.98828125 0  4.464694218296445 0.7031618514150944 0  4.671875 0.91015625 0  4.265625 0.91796875 0  3.453125 0.93359375 0  3.859375 0.92578125 0  2.640625 0.94921875 0  3.046875 0.94140625 0  2.234375 0.95703125 0  1.828125 0.96484375 0  1.421875 0.97265625 0  1.015625 0.98046875 0  5.484375 -0.10546875 0  4.060661963989729 0.6870321141431521 0  -2.34375 0 0  -2.34375 1 0  1.003521337202078 0.4664537109579014 0  3.646922073215719 0.2678295141073984 0  3.253141618048695 0.6711470624742265 0  0.3013894287350291 0.1773590807784885 0  -1.124347644480009 0.4398459561477482 0  2.831246172847781 0.248957659490205 0  2.446473427278441 0.6570274073729461 0  -2.198800970885971 0.1954869700666445 0  2.01591648071966 0.2304840455985115 0  0.827600060761903 0.2057214409193794 0  1.640609275971101 0.6442729681322822 0  -0.15625 0 0  6.483664772727272 0.3124999999999999 0  5.477125710212377 0.3518294601818938 0  11.41161533959385 0.3125 0  12 0.3125 0  11.04150966040615 0.3125 0  12 0.6875 0  1.198054295914707 0.2143210783083181 0  -1.40625 0 0  0.9109798103993655 0.8221220157670066 0  5.845812869360681 0.3162425406240469 0  0.4667569911039429 0.6726473502422988 0  0.4593425712678239 0.3353704711440587 0  8.211153274166278 0.6806358075271245 0  9.586153274166278 0.6806358075271245 0  6.835007346992159 0.6944141097550816 0  6.663707386363637 0.4925130208333334 0  10.96058238636364 0.680013020833333 0  -1.40625 1 0  -1.320649221029402 0.826171875 0  5.082724050007036 0.6788909168133963 0  -0.1275597151206816 0.375 0  0.7018834652202378 0.6003751687871122 0  -1.71875 0 0  5.523196914803937 0.7163232589905226 0  0.3602612407862962 0.5307539682539683 0  0.1786479052710517 0.5327459553507268 0  1.289006631999016 0.8051714473419221 0  -1.328125 0.156663781811377
[...]
<PointData  Vectors="displacement"> 
<DataArray  type="Float64"  Name="displacement"  NumberOfComponents="3" format="ascii">0.0000000000000000e+00 0.0000000000000000e+00 0.0000000000000000e+00  -5.8354775416528712e-02 -3.4608822369179687e-01 0.0000000000000000e+00  -6.5639117119715484e-02 -6.2909722311317207e-01 0.0000000000000000e+00  -1.5729818452320209e-02 -6.3039331126990428e-01 0.0000000000000000e+00  -8.4433633019128634e-03 -3.4738540004084772e-01 0.0000000000000000e+00  0.0000000000000000e+00 0.0000000000000000e+00 0.0000000000000000e+00  -1.5803211018042895e-02 -6.2656315987436340e-01 0.0000000000000000e+00  -8.5197444254421772e-03 -3.4355542586491328e-01 0.0000000000000000e+00  2.7211736650796410e-02 -3.6870467171893856e-01 0.0000000000000000e+00  2.7211736650796410e-02 -3.6870467171893856e-01 0.0000000000000000e+00  -4.0191336673994858e-03 -1.7512493268315271e-01 0.0000000000000000e+00  -4.0912001411219446e-03 -1.7075440388065044e-01 0.0000000000000000e+00  -3.4016368868432408e-02 -1.7431574423255947e-01 0.0000000000000000e+00  -1.2086775563886433e-02 -4.8888902045291743e-01 0.0000000000000000e+00  -1.2160167758240697e-02 -4.8505886877660132e-01 0.0000000000000000e+00  -6.1996073951566193e-02 -4.8759293239855267e-01 0.0000000000000000e+00  -1.8576163929174836e-03 -8.8830774760813427e-02 0.0000000000000000e+00  -1.8265433622698265e-03 -8.4112404229752094e-02 0.0000000000000000e+00  -1.8124599661908197e-02 -8.8386993836778879e-02 0.0000000000000000e+00  -6.3209101615127015e-03 -2.5718939599881147e-01 0.0000000000000000e+00  -6.2039365335320607e-03 -2.6126316080150164e-01 0.0000000000000000e+00  -4.7406448666858662e-02 -2.6017012513419108e-01 0.0000000000000000e+00  -1.0265255841931996e-02 -4.1813685490791813e-01 0.0000000000000000e+00  -1.0338652087445362e-02 -4.1430675064135086e-01 0.0000000000000000e+00  -6.0174560745541318e-02 -4.1684076277234239e-01 0.0000000000000000e+00  -1.3981689556757692e-02 -5.5581101443661851e-01 0.0000000000000000e+00  -1.3908296989897822e-02 -5.5964116583539358e-01 0.0000000000000000e+00  -6.3817595657863865e-02 -5.5834507767860453e-01 0.0000000000000000e+00  1.3605868313983837e-02 -1.8435233582546887e-01 0.0000000000000000e+00  1.3605868313983837e-02 -1.8435233582546887e-01 0.0000000000000000e+00  -7.8374620278417421e-04 -4.5677543198857071e-02 0.0000000000000000e+00  -7.5520947133643468e-04 -4.0643559629347445e-02 0.0000000000000000e+00  -9.2377152146969465e-03 -4.5440832075932691e-02 0.0000000000000000e+00  -2.9649541080503964e-03 -1.2746342936508279e-01 0.0000000000000000e+00  -2.9388038559102869e-03 -1.3200249248074394e-01 0.0000000000000000e+00  -2.6388502717915489e-02 -1.3136539669143091e-01 0.0000000000000000e+00  -5.1061483539601698e-03 -2.1820686689603588e-01 0.0000000000000000e+00  -5.2102403294678147e-03 -2.1399152640988900e-01 0.0000000000000000e+00  -4.1019948841261533e-02 -2.1724576951024654e-01 0.0000000000000000e+00  -7.3157173869756956e-03 -3.0431463927511604e-01 0.0000000000000000e+00  -7.4233518364593557e-03 -3.0036870987779279e-01 0.0000000000000000e+00  -5.3182293772126570e-02 -3.0310937739358795e-01 0.0000000000000000e+00  2.0408802482510952e-02 -2.7652850377234278e-01 0.0000000000000000e+00  2.0408802482510952e-02 -2.7652850377234278e-01 0.0000000000000000e+00  6.8029341499744418e-03 -9.2176167885605564e-02 0.0000000000000000e+00  6.8029341499744418e-03 -9.2176167885605564e-02 0.0000000000000000e+00  -1.1249409660185143e-02 -4.4968279601964900e-01 0.0000000000000000e+00  -1.1176014379930660e-02 -4.5351294880538862e-01 0.0000000000000000e+00  -6.1085314801972684e-02 -4.5221686017143481e-01 0.0000000000000000e+00  -9.3545191503321152e-03 -3.8276094120337428e-01 0.0000000000000000e+00  -9.4275886725908135e-03 -3.7893033697732798e-01 0.0000000000000000e+00  -5.9263545121426724e-02 -3.8146495745717790e-01 0.0000000000000000e+00  -1.4819057721313795e-02 -5.9501723855181476e-01 0.0000000000000000e+00  -1.4892450286652674e-02 -5.9118708715616552e-01 0.0000000000000000e+00  -6.4728356388435784e-02 -5.9372115039516460e-01 0.0000000000000000e+00  -1.2997536258870464e-02 -5.2426509309775060e-01 0.0000000000000000e+00  -1.3070928843722296e-02 -5.2043494175031035e-01 0.0000000000000000e+00  -6.2906834943411122e-02 -5.2296900493337861e-01 0.0000000000000000e+00  0.0000000000000000e+00 0.0000000000000000e+00 0.0000000000000000e+00  -1.2912376400495439e-03 -6.4331499191743122e-02 0.0000000000000000e+00  -2.3888609938193753e-03 -1.0763956979675887e-01 0.0000000000000000e+00  -3.4937974790672554e-03 -1.5088897315918526e-01 0.0000000000000000e+00  -4.5968639838719792e-03 -1.9408658694781766e-01 0.0000000000000000e+00  1.0204401228971094e-02 -1.3826425185096580e-01 0.0000000000000000e+00  1.7007335398488293e-02 -2.3044041979916730e-01 0.0000000000000000e+00  2.7211736650787560e-02 -3.6870467171894045e-01 0.0000000000000000e+00  -5.7000088533983063e-03 -2.3724293876895000e-01 0.0000000000000000e+00  -6.7579116183655880e-03 -2.8278804377979067e-01 0.0000000000000000e+00  -6.8731436013253627e-03 -2.7877984382596355e-01 0.0000000000000000e+00  -5.0370488329969140e-02 -2.8163644347277750e-01 0.0000000000000000e+00  -7.9716019906213298e-03 -3.2195973178955489e-01 0.0000000000000000e+00  -7.8775574559859455e-03 -3.2584575205373062e-01 0.0000000000000000e+00  -5.5842691986432227e-02 -3.2459159314225405e-01 0.0000000000000000e+00  -1.1668091155176342e-02 -4.6928589727459241e-01 0.0000000000000000e+00  -9.8465409544216433e-03 -3.9853041581137683e-01 0.0000000000000000e+00  -1.0757322459954153e-02 -4.3390964924899328e-01 0.0000000000000000e+00  -8.9341038012493330e-03 -3.6309817258809624e-01 0.0000000000000000e+00  -1.3489612902058848e-02 -5.4003805374411729e-01 0.0000000000000000e+00  -1.4400373638705345e-02 -5.7541412649275758e-01 0.0000000000000000e+00  -1.5766514735156001e-02 -6.2847823557213556e-01 0.0000000000000000e+00  -1.2578852202075894e-02 -5.0466198048335320e-01 0.0000000000000000e+00  -1.7962332367868323e-04 -2.9198507794436120e-02 0.0000000000000000e+00  5.1022005955419156e-03 -6.9132125887417906e-02 0.0000000000000000e+00  2.2109536024558681e-02 -2.9957254575897413e-01 0.0000000000000000e+00  -6.5285166946929176e-03 -2.6959322680754477e-01 0.0000000000000000e+00  -7.6359675507997231e-03 -3.1270550733696456e-01 0.0000000000000000e+00  -5.6534797638526611e-03 -2.3973705463882095e-01 0.0000000000000000e+00  -4.4289920917920104e-02 -2.3870748857806928e-01 0.0000000000000000e+00  -3.7595752517112994e-02 -1.9578251677097935e-01 0.0000000000000000e+00  -4.5615181169417806e-03 -1.9667016974005896e-01 0.0000000000000000e+00  -3.4783965164055766e-03 -1.5356941793424614e-01 0.0000000000000000e+00  -3.0280951184151684e-02 -1.5284384010567062e-01 0.0000000000000000e+00  -2.2338286508538481e-02 -1.0987898569289822e-01 0.0000000000000000e+00  -2.3997122223985107e-03 -1.1042237450435483e-01 0.0000000000000000e+00  -1.3045324268550615e-03 -6.7248180095233548e-02 0.0000000000000000e+00  -1.3738040311626945e-02 -6.6909380182946385e-02 0.0000000000000000e+00  -5.1464161837538715e-03 -2.1574520874565273e-01 0.0000000000000000e+00  -4.0429906913783675e-03 -1.7264406561052603e-01 0.0000000000000000e+00  -1.8412719938230347e-03 -8.6286941199100603e-02 0.0000000000000000e+00  -7.0874914858848129e-03 -2.9095366973536541e-01 0.0000000000000000e+00  -2.9402512345362902e-03 -1.2949340788723912e-01 0.0000000000000000e+00  -5.4598115572343498e-04 -2.3773416129227613e-02 0.0000000000000000e+00  -4.8908417290163802e-03 -2.3636293420442031e-02 0.0000000000000000e+00  -7.2528710945735152e-04 -1.9415460509284981e-02 0.0000000000000000e+00  -5.7666360884830884e-03 -2.3559424189784106e-01 0.0000000000000000e+00  -4.6517463267998060e-03 -1.9237890653236100e-01 0.0000000000000000e+00  -3.5286664215690793e-03 -1.4911610219240767e-01 0.0000000000000000e+00  -2.4001790376075856e-03 -1.0579705067237315e-01 0.0000000000000000e+00  -1.2342527274333123e-03 -6.2380630259102669e-02 0.0000000000000000e+00  -1.5347830652476982e-02 -6.0887512351536699e-01 0.0000000000000000e+00  -1.5083444186945074e-02 -6.0194618103339559e-01 0.0000000000000000e+00  -8.4296664924282585e-03 -3.4353065320237486e-01 0.0000000000000000e+00  -6.2451454535351253e-02 -5.0528096856276761e-01 0.0000000000000000e+00  -1.2542155905174992e-02 -5.0657705671097408e-01 0.0000000000000000e+00  -6.3362215299111360e-02 -5.4065704131476477e-01 0.0000000000000000e+00  -1.3452916623444493e-02 -5.4195312947433227e-01 0.0000000000000000e+00  -6.4272976022482151e-02 -5.7603311403683000e-01 0.0000000000000000e+00  -1.4363677355778951e-02 -5.7732920219329154e-01 0.0000000000000000e+00  -5.8808335330607524e-02 -3.6377740103945683e-01 0.0000000000000000e+00  -8.8990295157870183e-03 -3.6507340538557281e-01 0.0000000000000000e+00  -5.9719116443285911e-02 -3.9915274658288297e-01 0.0000000000000000e+00  -9.8098871801166349e-03 -4.0044881439627511e-01 0.0000000000000000e+00  -6.0629940940787469e-02 -4.3452881670182308e-01 0.0000000000000000e+00  -1.0720633513717624e-02 -4.3582490816020703e-01 0.0000000000000000e+00  -6.1540693417191941e-02 -4.6990489669811275e-01 0.0000000000000000e+00  -1.1631395142591018e-02 -4.7120098465786980e-01 0.0000000000000000e+00  -6.5183736754166735e-02 -6.1140918675409184e-01 0.0000000000000000e+00  -1.5274438086806164e-02 -6.1270527491082416e-01 0.0000000000000000e+00  3.4014670613225300e-03 -4.6088083901730970e-02 0.0000000000000000e+00  2.3810269566661438e-02 -3.2261658774564933e-01 0.0000000000000000e+00  -1.2120541295599896e-02 -4.8712688221697742e-01 0.0000000000000000e+00  -1.2615548407531874e-02 -5.0274690539085154e-01 0.0000000000000000e+00  -1.3037163143157306e-02 -5.2219707721932662e-01 0.0000000000000000e+00  -1.3942062665888067e-02 -5.5787903020037521e-01 0.0000000000000000e+00  -1.4437069920644932e-02 -5.7349905079629171e-01 0.0000000000000000e+00  -1.3526309200520769e-02 -5.3812297808446019e-01 0.0000000000000000e+00  -8.9726235154947102e-03 -3.6124199374391935e-01 0.0000000000000000e+00  -9.3938516524740071e-03 -3.8067864672733820e-01 0.0000000000000000e+00  -1.0299005130836203e-02 -4.1637395899958779e-01 0.0000000000000000e+00  -1.0794037488277232e-02 -4.3199476861147601e-01 0.0000000000000000e+00  -1.1215639295340215e-02 -4.5144488681965195e-01 0.0000000000000000e+00  -9.8831739600574921e-03 -3.9661867124129019e-01 0.0000000000000000e+00  -1.1704787324279873e-02 -4.6737083172107657e-01 0.0000000000000000e+00  -7.8779482181163705e-04 -4.6035876394750062e-02 0.0000000000000000e+00  2.3810269566661438e-02 -3.2261658774564933e-01 0.0000000000000000e+00  3.4014670613225300e-03 -4.6088083901730970e-02 0.0000000000000000e+00  0.0000000000000000e+00 0.0000000000000000e+00 0.0000000000000000e+00  8.0546213217756857e-05 -1.4071157266984866e-02 0.0000000000000000e+00  -1.0239137485548108e-03 -5.5011525048955817e-02 0.0000000000000000e+00  -1.5983737032290956e-03 -7.5926800771550521e-02 0.0000000000000000e+00  1.3605868313917854e-02 -1.8435233582570645e-01 0.0000000000000000e+00  1.3980029693972763e-02 -1.8942202506309655e-01 0.0000000000000000e+00  1.7007335398238319e-02 -2.3044041979890884e-01 0.0000000000000000e+00  1.7007335398238319e-02 -2.3044041979890884e-01 0.0000000000000000e+00  1.0204401231175116e-02 -1.3826425185389876e-01 0.0000000000000000e+00  1.0204401231175116e-02 -1.3826425185389876e-01 0.0000000000000000e+00  -2.1152882403315198e-03 -9.5882004321557399e-02 0.0000000000000000e+00  -2.7023536453241953e-03 -1.1875219446423883e-01 0.0000000000000000e+00  -6.0993154033073572e-03 -2.5393810451771703e-01 0.0000000000000000e+00  2.2422341448795460e-04 -1.4940254202766271e-02 0.0000000000000000e+00  -3.8061115790373706e-03 -1.6153157190332479e-01 0.0000000000000000e+00  -3.2327996404704889e-03 -1.3917902398673843e-01 0.0000000000000000e+00  -4.9069061846192270e-03 -2.0427313645820055e-01 0.0000000000000000e+00  -4.3469560743769854e-03 -1.8242235944318791e-01 0.0000000000000000e+00  8.5036676877543807e-03 -1.1522020986564754e-01 0.0000000000000000e+00  8.5036676884982891e-03 -1.1522020986616631e-01 0.0000000000000000e+00  0.0000000000000000e+00 0.0000000000000000e+00 0.0000000000000000e+00  2.7211736650798676e-02 -3.6870467171894539e-01 0.0000000000000000e+00  2.4390170168561823e-02 -3.3047393487739485e-01 0.0000000000000000e+00  1.9320333015521402e-02 -2.6178031690085185e-01 0.0000000000000000e+00  1.8708068940508065e-02 -2.5348446178573014e-01 0.0000000000000000e+00  -8.0446059209093677e-03 -3.2771690864805897e-01 0.0000000000000000e+00  -5.4568624239213562e-03 -2.2561764884578683e-01 0.0000000000000000e+00  -6.0097729028083914e-03 -2.4721769404953739e-01 0.0000000000000000e+00  -2.1228110069692664e-03 -9.8383683979561085e-02 0.0000000000000000e+00  -3.2132510614924894e-03 -1.4155448208056587e-01 0.0000000000000000e+00  -1.5322953496543926e-03 -7.4780630094680570e-02 0.0000000000000000e+00  5.1022006199883188e-03 -6.9132125894309060e-02 0.0000000000000000e+00  -4.3051913438398636e-03 -1.8467246665927931e-01 0.0000000000000000e+00  -2.6316286537245181e-03 -1.1840366603294314e-01 0.0000000000000000e+00  -5.4015109997795491e-03 -2.2774816247789917e-01 0.0000000000000000e+00  -3.7338081401975510e-03 -1.6198486871412757e-01 0.0000000000000000e+00  -4.8378317084168390e-03 -2.0552732531900894e-01 0.0000000000000000e+00  -4.5885635744279325e-04 -3.2213366611534913e-02 0.0000000000000000e+00  -4.5089018326564437e-04 -3.3590064834829104e-02 0.0000000000000000e+00  -8.1260687959221617e-03 -3.3334063644463713e-01 0.0000000000000000e+00  2.7064469490765720e-03 -3.6670927909201123e-02 0.0000000000000000e+00  2.1602537147902893e-02 -2.9270297853235644e-01 0.0000000000000000e+00  -1.4731269539273867e-02 -5.8923539272469572e-01 0.0000000000000000e+00  -1.5414340087353949e-02 -6.1576744726378685e-01 0.0000000000000000e+00  1.1280953349095773e-02 -1.5285096493037820e-01 0.0000000000000000e+00  -1.4167926317827281e-02 -5.6484849331618248e-01 0.0000000000000000e+00  -1.1422052320335918e-02 -4.6139941289375797e-01 0.0000000000000000e+00  -1.0966668121722221e-02 -4.4371132656629231e-01 0.0000000000000000e+00  -9.6005111199974850e-03 -3.9064241260490445e-01 0.0000000000000000e+00  -9.1447313989303173e-03 -3.7293876651804880e-01 0.0000000000000000e+00  -1.3243574574899920e-02 -5.3215157339544006e-01 0.0000000000000000e+00  -1.2788194219864633e-02 -5.1446353686909574e-01 0.0000000000000000e+00  -8.6867959922579206e-03 -3.5518284887870982e-01 0.0000000000000000e+00  -8.7009613041948639e-03 -3.5249235838476045e-01 0.0000000000000000e+00  -1.5496957589664701e-02 -6.1668540365770874e-01 0.0000000000000000e+00  -1.2346404829641472e-02 -4.9409634689357884e-01 0.0000000000000000e+00  -1.1934304268787353e-02 -4.7808940187116550e-01 0.0000000000000000e+00  -1.3755825904234329e-02 -5.4884155131367540e-01 0.0000000000000000e+00  -1.4646411962650751e-02 -5.8330060682470297e-01 0.0000000000000000e+00  -1.0524879357481677e-02 -4.2334390803124594e-01 0.0000000000000000e+00  -1.0112762222424861e-02 -4.0733615024383368e-01 0.0000000000000000e+00  2.4784648158456622e-02 -3.3581890346715387e-01 0.0000000000000000e+00  2.9238637736937823e-03 -3.9616811835645693e-02 0.0000000000000000e+00  -6.6804473812986562e-04 -4.2660110940308978e-02 0.0000000000000000e+00  2.7211736650785606e-02 -3.6870467171893356e-01 0.0000000000000000e+00  1.6599252526260874e-02 -2.2491111223525170e-01 0.0000000000000000e+00  -1.0054439767966375e-02 -4.0841069464533930e-01 0.0000000000000000e+00  -1.0509816995174432e-02 -4.2609956517828651e-01 0.0000000000000000e+00  -1.3697489643084603e-02 -5.4991607983172308e-01 0.0000000000000000e+00  -1.4174247097895503e-02 -5.6830106631256094e-01 0.0000000000000000e+00  -1.1875968279521030e-02 -4.7916393106975624e-01 0.0000000000000000e+00  -1.2331348618712093e-02 -4.9685196993761210e-01 0.0000000000000000e+00  -1.3300182651724784e-02 -5.3100991786361729e-01 0.0000000000000000e+00  -1.2826355807020894e-02 -5.1247199120418974e-01 0.0000000000000000e+00  -9.6570045850306475e-03 -3.8950099802429666e-01 0.0000000000000000e+00  -9.1827063355465494e-03 -3.7094802788958825e-01 0.0000000000000000e+00  -1.1478660625324056e-02 -4.6025775673144431e-01 0.0000000000000000e+00  -1.1004833883561993e-02 -4.4171978622378705e-01 0.0000000000000000e+00  -1.1306416851649787e-03 -5.8068192629205186e-02 0.0000000000000000e+00  -6.8062919296101180e-03 -2.8190523007577994e-01 0.0000000000000000e+00  -6.4804584891572465e-03 -2.7202556497191516e-01 0.0000000000000000e+00  -4.8907530368026739e-02 -2.7090264518711599e-01 0.0000000000000000e+00  -7.3195452073656180e-03 -3.0180834693952496e-01 0.0000000000000000e+00  1.6100956444821336e-02 -2.1815946329121555e-01 0.0000000000000000e+00  1.1207598894025988e-02 -1.5185705081176740e-01 0.0000000000000000e+00  -5.7628631894535425e-04 -1.2342997937143378e-02 0.0000000000000000e+00  -2.7950551016812566e-03 -1.2269231623270160e-02 0.0000000000000000e+00  -8.1598936650293975e-03 -3.3661410045202755e-01 0.0000000000000000e+00  -5.7117088981044457e-02 -3.3533749658854073e-01 0.0000000000000000e+00  2.1804466945452097e-02 -2.9543902072762585e-01 0.0000000000000000e+00  7.5885739670505650e-03 -1.0282117289997314e-01 0.0000000000000000e+00  5.9525673656949879e-03 -8.0654146884672970e-02 0.0000000000000000e+00  1.9612642701716376e-02 -2.6574095889056149e-01 0.0000000000000000e+00  -7.0363124030173030e-03 -2.9355095483429416e-01 0.0000000000000000e+00  -5.4531419033838437e-02 -3.1384912714607677e-01 0.0000000000000000e+00  -7.5961398121621752e-03 -3.1507945316641078e-01 0.0000000000000000e+00  -6.3261230576770050e-03 -2.5989289943479293e-01 0.0000000000000000e+00  -6.8093682060040078e-03 -2.7889688023506493e-01 0.0000000000000000e+00  -6.3662237404348036e-03 -2.6542895795183358e-01 0.0000000000000000e+00  -5.9282905988716182e-03 -2.5050043841528519e-01 0.0000000000000000e+00  -4.5867452110682216e-02 -2.4943852996836618e-01 0.0000000000000000e+00  -6.5972817963213300e-03 -2.6798502223600251e-01 0.0000000000000000e+00  -4.2674164449807594e-02 -2.2797666057817978e-01 0.0000000000000000e+00  -5.3794421806924808e-03 -2.2897260823701801e-01 0.0000000000000000e+00  -7.8190546302875363e-03 -3.2147482692651547e-01 0.0000000000000000e+00  -7.6976398519034974e-03 -3.1116369011634643e-01 0.0000000000000000e+00  -7.3965794314365431e-03 -3.0185446115798531e-01 0.0000000000000000e+00  -8.2454381903912626e-03 -3.3275698740814585e-01 0.0000000000000000e+00  -4.8335248696648805e-03 -2.0743949421085420e-01 0.0000000000000000e+00  -3.9327112521165879e-02 -2.0651446289415068e-01 0.0000000000000000e+00  -5.8076214989578965e-03 -2.4359317411851417e-01 0.0000000000000000e+00  -2.4084117423704464e-03 -1.0733146477153525e-01 0.0000000000000000e+00  -4.2900899611205646e-03 -1.8589873481657312e-01 0.0000000000000000e+00  -3.5825514189120888e-02 -1.8504968115842071e-01 0.0000000000000000e+00  -1.5502128269560538e-02 -6.2154929309036488e-01 0.0000000000000000e+00  -6.5411426936949971e-02 -6.2025320493362890e-01 0.0000000000000000e+00  -1.5046747904057337e-02 -6.0386125673129354e-01 0.0000000000000000e+00  -6.4956046571339784e-02 -6.0256516857458653e-01 0.0000000000000000e+00  -1.1859085374899074e-02 -4.8004500248246762e-01 0.0000000000000000e+00  -6.1768383620922074e-02 -4.7874891449474882e-01 0.0000000000000000e+00  -1.1403704810128822e-02 -4.6235696687953687e-01 0.0000000000000000e+00  -6.1313003659221717e-02 -4.6106087877044361e-01 0.0000000000000000e+00  -1.0948323861875364e-02 -4.4466892964521548e-01 0.0000000000000000e+00  -6.0857627289457074e-02 -4.4337283988040127e-01 0.0000000000000000e+00  -1.0492943792167933e-02 -4.2698088313726057e-01 0.0000000000000000e+00  -6.0402253888427376e-02 -4.2568479014819105e-01 0.0000000000000000e+00  -1.0037569983341398e-02 -4.0929282770439634e-01 0.0000000000000000e+00  -5.9946852498511290e-02 -4.0799674226929306e-01 0.0000000000000000e+00  -9.5822063622330190e-03 -3.9160484121170180e-01 0.0000000000000000e+00  -5.9491342272682615e-02 -3.9030880817044777e-01 0.0000000000000000e+00  -9.1268091338566823e-03 -3.7391713964288076e-01 0.000000000