<?xml version="1.0"?>
<VTKFile type="UnstructuredGrid"  version="0.1"  >
<UnstructuredGrid>
<Piece  NumberOfPoints="6614" NumberOfCells="12519">
<Points>
<DataArray  type="Float64"  NumberOfComponents="3"  format="ascii">0 0 0  6.5 -0.125 0  12 -0.125 0  12 0.125 0  6.5 0.125 0  0 1 0  12 0.875 0  6.5 0.875 0  -2.5 1 0  -2.5 0 0  3.25 0.0625 0  3.25 0.9375 0  3.25 -0.0625 0  9.25 0.125 0  9.25 0.875 0  9.25 -0.125 0  1.625 0.03125 0  1.625 0.96875 0  1.625 -0.03125 0  4.875 0.90625 0  4.875 0.09375 0  4.875 -0.09375 0  7.875 0.125 0  7.875 0.875 0  7.875 -0.125 0  10.625 0.875 0  10.625 0.125 0  10.625 -0.125 0  -1.25 1 0  -1.25 0 0  0.8125 0.015625 0  0.8125 0.984375 0  0.8125 -0.015625 0  2.4375 0.953125 0  2.4375 0.046875 0  2.4375 -0.046875 0  4.0625 0.078125 0  4.0625 0.921875 0  4.0625 -0.078125 0  5.6875 0.109375 0  5.6875 0.890625 0  5.6875 -0.109375 0  -1.875 0 0  -1.875 1 0  -0.625 0 0  -0.625 1 0  8.5625 0.875 0  8.5625 0.125 0  8.5625 -0.125 0  7.1875 0.125 0  7.1875 0.875 0  7.1875 -0.125 0  11.3125 0.125 0  11.3125 0.875 0  11.3125 -0.125 0  9.9375 0.125 0  9.9375 0.875 0  9.9375 -0.125 0  0 0.5 0  1.209585336538462 0.5 0  2.022385817307693 0.5 0  2.835186298076923 0.5 0  3.647986778846154 0.5 0  -0.9375 0.5 0  -1.5625 0.5 0  -2.5 0.5 0  4.460787259615385 0.5 0  5.28125 0.1015625 0  5.28125 0.8984375 0  5.28125 -0.1015625 0  6.09375 0.8828125 0  6.09375 0.1171875 0  6.09375 -0.1171875 0  8.90625 0.5 0  7.53125 0.5 0  8.21875 0.5 0  6.84375 0.5 0  10.28125 0.5 0  10.96875 0.5 0  12 0.5 0  9.59375 0.5 0  0.5506310096153846 0.5 0  -0.46875 0.4453125 0  -2.03125 0.4453125 0  5.070387620192307 0.5 0  5.883188100961538 0.5 0  4.46875 0.0859375 0  4.46875 -0.0859375 0  3.65625 -0.0703125 0  3.65625 0.0703125 0  2.84375 0.0546875 0  2.84375 -0.0546875 0  2.03125 -0.0390625 0  2.03125 0.0390625 0  1.21875 0.0234375 0  1.21875 -0.0234375 0  4.054387019230769 0.4847310450995098 0  3.241586538461538 0.4699247074852732 0  1.615985576923077 0.4417102219320143 0  5.476787860576923 0.53993893765092 0  2.428786057692307 0.4556005042418 0  0.40625 0.0078125 0  0.40625 -0.0078125 0  0.40625 0.9921875 0  4.46875 0.9140625 0  3.65625 0.9296875 0  2.84375 0.9453125 0  2.03125 0.9609375 0  1.21875 0.9765625 0  11.65625 0.875 0  11.484375 0.5 0  6.467329545454546 0.5 0  9.59375 -0.125 0  9.59375 0.125 0  10.28125 -0.125 0  10.28125 0.125 0  10.96875 -0.125 0  10.96875 0.125 0  6.84375 -0.125 0  6.84375 0.125 0  7.53125 -0.125 0  7.53125 0.125 0  8.21875 -0.125 0  8.21875 0.125 0  8.90625 -0.125 0  8.90625 0.125 0  11.65625 -0.125 0  11.65625 0.125 0  -0.3125 1 0  -2.1875 1 0  9.25 0.4700520833333333 0  9.59375 0.875 0  9.9375 0.5299479166666666 0  10.625 0.4700520833333333 0  10.96875 0.875 0  10.28125 0.875 0  6.84375 0.875 0  7.1875 0.5299479166666666 0  7.875 0.4700520833333333 0  8.21875 0.875 0  8.5625 0.5299479166666666 0  7.53125 0.875 0  8.90625 0.875 0  0.8801081730769231 0.63484883039911 0  -2.1875 0 0  -0.3125 0 0  0 0.25 0  0.2753155048076923 0.6865079365079365 0  1.011042668269231 0.2578125 0  1.446827777824054 0.7082004557951647 0  -1.25 0.65234375 0  -1.284375 0.326171875 0  -1.5625 0 0  -1.5625 1 0  -0.9375 0 0  -0.9375 1 0  1.823692908653846 0.7343749999999999 0  2.250687166802934 0.7075583934794667 0  4.765587439903847 0.3964836665810265 0  0.2753155048076923 0.375 0  3.054829110674799 0.707148526758953 0  2.636343149038462 0.7265625000000001 0  3.859250973615127 0.7069998487229827 0  3.448993389423077 0.7187500000000001 0  -0.78125 0.75 0  -0.78125 0.25 0  0 0.75 0  -2.5 0.25 0  -2.240776699029126 0.6856416868932038 0  -1.775 0.28515625 0  -1.71875 0.75 0  6.175258823208043 0.5886645441611957 0  4.261643629807693 0.7109374999999998 0  4.667893629807693 0.7031250000000002 0  1.824167367109634 0.2409531602990362 0  2.636686615214766 0.2555772588321514 0  1.38325552388875 0.2649704395311445 0  -0.46875 0.7446632922535211 0  3.449201796915416 0.2704128103983777 0  2.203202991433102 0.2729232708226779 0  4.261712450328808 0.2854838329019752 0  3.023283383806745 0.2808786583609286 0  3.843540099517909 0.288837436732593 0  0.6331235396611878 0.7683768130429148 0  0.6054339511832376 0.2166532884716425 0  6.256771799991964 0.3317884692185022 0  -0.2486470253814554 0.5949878961267605 0  -1.984670937186905 0.7576275392581842 0  11.2265625 0.3912760416666667 0  11.7421875 0.3912760416666667 0  -1.036405127827206 0.2643561701079966 0  10.78053977272727 0.6725260416666666 0  8.734375 0.3125 0  8.390625 0.3125 0  7.359375 0.3125 0  7.015625 0.3125 0  10.109375 0.3125 0  9.765625 0.3125 0  6.671875 0.3125 0  6.655539772727273 0.6725260416666669 0  11.78555345556989 0.6484760842723984 0  9.405539772727273 0.6725260416666666 0  9.094460227272727 0.6725260416666666 0  10.46946022727273 0.6725260416666666 0  11.140625 0.6875 0  8.030539772727273 0.6725260416666666 0  7.719460227272728 0.6725260416666666 0  -2.277018229166667 0.375 0  -0.2686215753424658 0.2654644691780822 0  0.7924173055676504 0.3931430043056919 0  -2.5 0.75 0  -1.525008560462654 0.2496950333675564 0  7.703125 0.2975260416666667 0  8.046875 0.2975260416666666 0  10.453125 0.2975260416666667 0  10.81190567787247 0.3125 0  9.078125 0.2975260416666667 0  9.421875 0.2975260416666666 0  10.12440567787247 0.6875 0  9.765625 0.7024739583333333 0  7.374405677872475 0.6875 0  7.015625 0.7024739583333333 0  8.749405677872474 0.6875 0  8.390625 0.7024739583333333 0  1.115551444307063 0.7401777158454262 0  5.28922999544003 0.360801083570939 0  5.078125 0.09765625 0  5.078125 -0.09765625 0  5.664767392260801 0.3650917682044265 0  -1.479229041916168 0.7258724738023952 0  -1.029665898617512 0.7685681883640553 0  0.203125 0.00390625 0  0.203125 -0.00390625 0  6.296875 0.12109375 0  6.296875 -0.12109375 0  -2.00322265625 0.205078125 0  -0.6971783980582524 0.5236271237864077 0  -0.546875 0.22265625 0  -1.801855111236272 0.5242311804773303 0  5.484375 0.10546875 0  5.890625 -0.11328125 0  5.890625 0.11328125 0  4.903633313301282 0.6699100680171115 0  5.260369462255295 0.6544725809557483 0  4.972693810096154 0.296875 0  4.671875 0.08984375 0  4.671875 -0.08984375 0  5.078125 0.90234375 0  4.265625 -0.08203125 0  4.265625 0.08203125 0  6.03259461594712 0.3328645427790781 0  5.890625 0.88671875 0  5.692656615207549 0.6488796598294736 0  6.296875 0.87890625 0  3.859375 0.07421875 0  3.859375 -0.07421875 0  4.561082497482947 0.2948209397629855 0  2.036725213111611 0.7135654082038703 0  3.453125 0.06640625 0  3.453125 -0.06640625 0  11.828125 0.125 0  11.828125 -0.125 0  11.484375 0.125 0  11.484375 -0.125 0  9.078125 0.125 0  9.078125 -0.125 0  8.734375 0.125 0  8.734375 -0.125 0  8.390625 0.125 0  8.390625 -0.125 0  8.046875 0.125 0  8.046875 -0.125 0  7.703125 0.125 0  7.703125 -0.125 0  7.359375 0.125 0  7.359375 -0.125 0  7.015625 0.125 0  7.015625 -0.125 0  6.671875 0.125 0  6.671875 -0.125 0  11.140625 0.125 0  11.140625 -0.125 0  10.796875 0.125 0  10.796875 -0.125 0  10.453125 0.125 0  10.453125 -0.125 0  10.109375 0.125 0  10.109375 -0.125 0  9.765625 0.125 0  9.765625 -0.125 0  9.421875 0.125 0  9.421875 -0.125 0  3.046875 0.05859375 0  3.046875 -0.05859375 0  2.846431093850899 0.7350694856199397 0  2.640625 -0.05078125 0  2.640625 0.05078125 0  0.203125 0.99609375 0  6.362699038303388 0.6807243972366781 0  2.234375 0.04296875 0  2.234375 -0.04296875 0  11.581701212888 0.6822801732596659 0  11.35203598484848 0.6662326388888888 0  1.828125 0.03515625 0  1.828125 -0.03515625 0  5.984553033425814 0.6914815580202875 0  1.822525515412832 0.4475696738977717 0  1.41733060903937 0.5025442175645189 0  1.588893519464248 0.2357861358511414 0  3.654445727495178 0.7241715610932831 0  -0.2708370651139332 0.7990289667308481 0  1.421875 0.02734375 0  1.421875 -0.02734375 0  5.484375 0.89453125 0  2.633855454650776 0.460690271159621 0  2.40795634504651 0.2507007772874862 0  2.225403489025307 0.476130253335854 0  1.015625 -0.01953125 0  1.015625 0.01953125 0  3.227321013248274 0.265830895248878 0  3.445567521085816 0.4744107463092357 0  3.038321171612397 0.4840806912614364 0  0.609375 0.01171875 0  0.609375 -0.01171875 0  4.257720382725849 0.4888191036475296 0  4.047058936483319 0.2812008669921838 0  3.851174586896061 0.4920378211671812 0  0.609375 0.98828125 0  4.464694218296445 0.7031618514150944 0  4.671875 0.91015625 0  4.265625 0.91796875 0  3.453125 0.93359375 0  3.859375 0.92578125 0  2.640625 0.94921875 0  3.046875 0.94140625 0  2.234375 0.95703125 0  1.828125 0.96484375 0  1.421875 0.97265625 0  1.015625 0.98046875 0  5.484375 -0.10546875 0  4.060661963989729 0.6870321141431521 0  -2.34375 0 0  -2.34375 1 0  1.003521337202078 0.4664537109579014 0  3.646922073215719 0.2678295141073984 0  3.253141618048695 0.6711470624742265 0  0.3013894287350291 0.1773590807784885 0  -1.124347644480009 0.4398459561477482 0  2.831246172847781 0.248957659490205 0  2.446473427278441 0.6570274073729461 0  -2.198800970885971 0.1954869700666445 0  2.01591648071966 0.2304840455985115 0  0.827600060761903 0.2057214409193794 0  1.640609275971101 0.6442729681322822 0  -0.15625 0 0  6.483664772727272 0.3124999999999999 0  5.477125710212377 0.3518294601818938 0  11.41161533959385 0.3125 0  12 0.3125 0  11.04150966040615 0.3125 0  12 0.6875 0  1.198054295914707 0.2143210783083181 0  -1.40625 0 0  0.9109798103993655 0.8221220157670066 0  5.845812869360681 0.3162425406240469 0  0.4667569911039429 0.6726473502422988 0  0.4593425712678239 0.3353704711440587 0  8.211153274166278 0.6806358075271245 0  9.586153274166278 0.6806358075271245 0  6.835007346992159 0.6944141097550816 0  6.663707386363637 0.4925130208333334 0  10.96058238636364 0.680013020833333 0  -1.40625 1 0  -1.320649221029402 0.826171875 0  5.082724050007036 0.6788909168133963 0  -0.1275597151206816 0.375 0  0.7018834652202378 0.6003751687871122 0  -1.71875 0 0  5.523196914803937 0.7163232589905226 0  0.3602612407862962 0.5307539682539683 0  0.1786479052710517 0.5327459553507268 0  1.289006631999016 0.8051714473419221 0  -1.328125 0.156663781811377
[...]
<PointData  Vectors="displacement"> 
<DataArray  type="Float64"  Name="displacement"  NumberOfComponents="3" format="ascii">0.0000000000000000e+00 0.0000000000000000e+00 0.0000000000000000e+00  -5.7781679537269093e-02 -3.3466689113789511e-01 0.0000000000000000e+00  -6.4591161620893969e-02 -6.0830411541858942e-01 0.0000000000000000e+00  -1.4680251751101280e-02 -6.0954666652967426e-01 0.0000000000000000e+00  -7.8686543668444048e-03 -3.3591052683711348e-01 0.0000000000000000e+00  0.0000000000000000e+00 0.0000000000000000e+00 0.0000000000000000e+00  -1.4761761407159261e-02 -6.0581149778347987e-01 0.0000000000000000e+00  -7.9531522740624184e-03 -3.3217554040581349e-01 0.0000000000000000e+00  2.7959673239040621e-02 -3.7286458811437101e-01 0.0000000000000000e+00  2.7959673239040621e-02 -3.7286458811437101e-01 0.0000000000000000e+00  -3.7334567436098248e-03 -1.6935788552878722e-01 0.0000000000000000e+00  -3.8147723868902717e-03 -1.6509602978792892e-01 0.0000000000000000e+00  -3.3731711241019022e-02 -1.6858195178624927e-01 0.0000000000000000e+00  -1.1274638317240300e-02 -4.7272826179475191e-01 0.0000000000000000e+00  -1.1356147602452968e-02 -4.6899309276712109e-01 0.0000000000000000e+00  -6.1185547907132105e-02 -4.7148571078557039e-01 0.0000000000000000e+00  -1.7167722749043433e-03 -8.5917701644751765e-02 0.0000000000000000e+00  -1.6957937963538883e-03 -8.1316197395587389e-02 0.0000000000000000e+00  -1.7984342666006542e-02 -8.5492165177585330e-02 0.0000000000000000e+00  -5.8993280842600231e-03 -2.4866978759080210e-01 0.0000000000000000e+00  -5.7737305783675244e-03 -2.5264217872732558e-01 0.0000000000000000e+00  -4.6977611361606157e-02 -2.5159414112869311e-01 0.0000000000000000e+00  -9.5718333569879792e-03 -4.0431903929384078e-01 0.0000000000000000e+00  -9.6533466125137100e-03 -4.0058391768277252e-01 0.0000000000000000e+00  -5.9482749469749741e-02 -4.0307648421458453e-01 0.0000000000000000e+00  -1.3058954673209788e-02 -5.3740229538671114e-01 0.0000000000000000e+00  -1.2977445015997433e-02 -5.4113746413614527e-01 0.0000000000000000e+00  -6.2888354886358092e-02 -5.3989491302500825e-01 0.0000000000000000e+00  1.3979836607938096e-02 -1.8643229402284614e-01 0.0000000000000000e+00  1.3979836607938096e-02 -1.8643229402284614e-01 0.0000000000000000e+00  -7.1500839386802678e-04 -4.4189936206904964e-02 0.0000000000000000e+00  -6.9598667397948431e-04 -3.9280434586028139e-02 0.0000000000000000e+00  -9.1692173181566923e-03 -4.3962888548639334e-02 0.0000000000000000e+00  -2.7612263616369195e-03 -1.2323602742400434e-01 0.0000000000000000e+00  -2.7254793249216168e-03 -1.2766241485505589e-01 0.0000000000000000e+00  -2.6175978877206005e-02 -1.2705148877061903e-01 0.0000000000000000e+00  -4.7481851459608157e-03 -2.1101284931689593e-01 0.0000000000000000e+00  -4.8611983009489851e-03 -2.0690241586901281e-01 0.0000000000000000e+00  -4.0663192622749471e-02 -2.1009128167507216e-01 0.0000000000000000e+00  -6.8132765602789518e-03 -2.9426670427898588e-01 0.0000000000000000e+00  -6.9292678012870057e-03 -2.9041884194839113e-01 0.0000000000000000e+00  -5.2681357285446442e-02 -2.9311110764954273e-01 0.0000000000000000e+00  2.0969754923611559e-02 -2.7964844106874875e-01 0.0000000000000000e+00  2.0969754923611559e-02 -2.7964844106874875e-01 0.0000000000000000e+00  6.9899182968392714e-03 -9.3216146984019560e-02 0.0000000000000000e+00  6.9899182968392714e-03 -9.3216146984019560e-02 0.0000000000000000e+00  -1.0504746868172659e-02 -4.3478849153518218e-01 0.0000000000000000e+00  -1.0423234495149224e-02 -4.3852366166698370e-01 0.0000000000000000e+00  -6.0334146120383167e-02 -4.3728111008169113e-01 0.0000000000000000e+00  -8.7204537577749170e-03 -3.7011459715065825e-01 0.0000000000000000e+00  -8.8016411435534996e-03 -3.6637897502338579e-01 0.0000000000000000e+00  -5.8631090753492522e-02 -3.6887214998473161e-01 0.0000000000000000e+00  -1.3828848383754391e-02 -5.7534206533207310e-01 0.0000000000000000e+00  -1.3910358039431876e-02 -5.7160689658576769e-01 0.0000000000000000e+00  -6.3739758253272660e-02 -5.7409951422107086e-01 0.0000000000000000e+00  -1.2126041648671518e-02 -5.0693286291900608e-01 0.0000000000000000e+00  -1.2207551323801828e-02 -5.0319769422092864e-01 0.0000000000000000e+00  -6.2036951535616280e-02 -5.0569031180031865e-01 0.0000000000000000e+00  0.0000000000000000e+00 0.0000000000000000e+00 0.0000000000000000e+00  -1.1922607562331751e-03 -6.2207692855636681e-02 0.0000000000000000e+00  -2.2174380491145813e-03 -1.0408596605372193e-01 0.0000000000000000e+00  -3.2497626064804034e-03 -1.4590581709240627e-01 0.0000000000000000e+00  -4.2803127336181876e-03 -1.8767398539408384e-01 0.0000000000000000e+00  1.0484877449342110e-02 -1.3982422049881782e-01 0.0000000000000000e+00  1.7474795766018597e-02 -2.3304036754606125e-01 0.0000000000000000e+00  2.7959673239031670e-02 -3.7286458811437284e-01 0.0000000000000000e+00  -5.3110151445071368e-03 -2.2940101510892025e-01 0.0000000000000000e+00  -6.2915897304702531e-03 -2.7345358351896909e-01 0.0000000000000000e+00  -6.4153083863561179e-03 -2.6954507584094212e-01 0.0000000000000000e+00  -4.9905606158110759e-02 -2.7234941489686643e-01 0.0000000000000000e+00  -7.4412670742340188e-03 -3.1129482360361688e-01 0.0000000000000000e+00  -7.3389898985953776e-03 -3.1508434611798108e-01 0.0000000000000000e+00  -5.5305687183913127e-02 -3.1388188694927721e-01 0.0000000000000000e+00  -1.0889691154420169e-02 -4.5375836605042419e-01 0.0000000000000000e+00  -9.1868613345358376e-03 -3.8534593742674134e-01 0.0000000000000000e+00  -1.0038280119972721e-02 -4.1955359539321896e-01 0.0000000000000000e+00  -8.3338767436740725e-03 -3.5108699309641150e-01 0.0000000000000000e+00  -1.2592498155225501e-02 -5.2216757913088707e-01 0.0000000000000000e+00  -1.3443901528150580e-02 -5.5637218035799518e-01 0.0000000000000000e+00  -1.4721006579104554e-02 -6.0767908215657851e-01 0.0000000000000000e+00  -1.1741094819842122e-02 -4.8796297740927846e-01 0.0000000000000000e+00  -1.4479103953852696e-04 -2.8233316756491308e-02 0.0000000000000000e+00  5.2424387054754891e-03 -6.9912110210979886e-02 0.0000000000000000e+00  2.2717234502444936e-02 -3.0295247783013657e-01 0.0000000000000000e+00  -6.0852220658877548e-03 -2.6067941361709740e-01 0.0000000000000000e+00  -7.1203107312017158e-03 -3.0236320989973853e-01 0.0000000000000000e+00  -5.2593917442710376e-03 -2.3182955367285993e-01 0.0000000000000000e+00  -4.3897124028334754e-02 -2.3084235199730158e-01 0.0000000000000000e+00  -3.7275041475626533e-02 -1.8933847765749243e-01 0.0000000000000000e+00  -4.2396907463834203e-03 -1.9018963713516171e-01 0.0000000000000000e+00  -3.2288875523423114e-03 -1.4851585463419165e-01 0.0000000000000000e+00  -3.0032357372716006e-02 -1.4782009001688318e-01 0.0000000000000000e+00  -2.2161839789209284e-02 -1.0627474052314834e-01 0.0000000000000000e+00  -2.2225885927977004e-03 -1.0679580825842031e-01 0.0000000000000000e+00  -1.2001821867093788e-03 -6.5048081548441772e-02 0.0000000000000000e+00  -1.3634257730691046e-02 -6.4723230656717215e-02 0.0000000000000000e+00  -4.7934748058206505e-03 -2.0861603144003832e-01 0.0000000000000000e+00  -3.7623685066538542e-03 -1.6694243592847818e-01 0.0000000000000000e+00  -1.7054626069693442e-03 -8.3440914976980557e-02 0.0000000000000000e+00  -6.6084321674077327e-03 -2.8133039124507825e-01 0.0000000000000000e+00  -2.7320437126909041e-03 -1.2521949565854842e-01 0.0000000000000000e+00  -5.0633088739766299e-04 -2.3006804530997130e-02 0.0000000000000000e+00  -4.8503867929587698e-03 -2.2875086767183705e-02 0.0000000000000000e+00  -6.8856187864129305e-04 -1.8756929240563994e-02 0.0000000000000000e+00  -5.3813167889939957e-03 -2.2778985269750376e-01 0.0000000000000000e+00  -4.3390001871030570e-03 -1.8600513413134606e-01 0.0000000000000000e+00  -3.2885815498639656e-03 -1.4417318759510842e-01 0.0000000000000000e+00  -2.2328253385691236e-03 -1.0228518418695687e-01 0.0000000000000000e+00  -1.1406435953345607e-03 -6.0300923628538061e-02 0.0000000000000000e+00  -1.4336059723423836e-02 -5.8870919718472647e-01 0.0000000000000000e+00  -1.4082454053639294e-02 -5.8202563125821116e-01 0.0000000000000000e+00  -7.8622750352821073e-03 -3.3216740475535422e-01 0.0000000000000000e+00  -6.1611249809411468e-02 -4.8858801118989442e-01 0.0000000000000000e+00  -1.1700339976860839e-02 -4.8983056229250665e-01 0.0000000000000000e+00  -6.2462653209445267e-02 -5.2279261242143238e-01 0.0000000000000000e+00  -1.2551743331380545e-02 -5.2403516353533264e-01 0.0000000000000000e+00  -6.3314056569147487e-02 -5.5699721362298271e-01 0.0000000000000000e+00  -1.3403146700049034e-02 -5.5823976473379577e-01 0.0000000000000000e+00  -5.8205558825440429e-02 -3.5177032961763710e-01 0.0000000000000000e+00  -8.2946419512607839e-03 -3.5301279690599652e-01 0.0000000000000000e+00  -5.9056983815030030e-02 -3.8597420367630009e-01 0.0000000000000000e+00  -9.1461433840993051e-03 -3.8721673456245809e-01 0.0000000000000000e+00  -5.9908450953167450e-02 -4.2017880238346528e-01 0.0000000000000000e+00  -9.9975323181004608e-03 -4.2142135678122894e-01 0.0000000000000000e+00  -6.0759846053475092e-02 -4.5438341084510953e-01 0.0000000000000000e+00  -1.0848936576826215e-02 -4.5562596175987341e-01 0.0000000000000000e+00  -6.4165459937174485e-02 -5.9120181481975309e-01 0.0000000000000000e+00  -1.4254550067416934e-02 -5.9244436593083782e-01 0.0000000000000000e+00  3.4949591345523972e-03 -4.6608073450523646e-02 0.0000000000000000e+00  2.4464714081333973e-02 -3.2625651459156857e-01 0.0000000000000000e+00  -1.1312138478639705e-02 -4.7100982225596438e-01 0.0000000000000000e+00  -1.1781849569458300e-02 -4.8609539362160042e-01 0.0000000000000000e+00  -1.2170051198247026e-02 -5.0491613107982425e-01 0.0000000000000000e+00  -1.3014945117250858e-02 -5.3941902711609924e-01 0.0000000000000000e+00  -1.3484656355259536e-02 -5.5450459598613677e-01 0.0000000000000000e+00  -1.2633252998800342e-02 -5.2029999479481503e-01 0.0000000000000000e+00  -8.3763551913087556e-03 -3.4927636825912134e-01 0.0000000000000000e+00  -8.7641931259692645e-03 -3.6808404618065688e-01 0.0000000000000000e+00  -9.6093183592913783e-03 -4.0259986792522484e-01 0.0000000000000000e+00  -1.0079053362844514e-02 -4.1768619990124295e-01 0.0000000000000000e+00  -1.0467242154029489e-02 -4.3650688517166286e-01 0.0000000000000000e+00  -9.2275472405750503e-03 -3.8348157387625659e-01 0.0000000000000000e+00  -1.0930445851534722e-02 -4.5189079147173900e-01 0.0000000000000000e+00  -7.2089258689642664e-04 -4.4509560671837561e-02 0.0000000000000000e+00  2.4464714081333973e-02 -3.2625651459156857e-01 0.0000000000000000e+00  3.4949591345523972e-03 -4.6608073450523646e-02 0.0000000000000000e+00  0.0000000000000000e+00 0.0000000000000000e+00 0.0000000000000000e+00  9.2858699960525967e-05 -1.3601391728988339e-02 0.0000000000000000e+00  -9.4032728217891860e-04 -5.3205651618734327e-02 0.0000000000000000e+00  -1.4805908492199879e-03 -7.3411642614214345e-02 0.0000000000000000e+00  1.3979836607871323e-02 -1.8643229402308609e-01 0.0000000000000000e+00  1.4364282116028471e-02 -1.9155918211092474e-01 0.0000000000000000e+00  1.7474795765765560e-02 -2.3304036754580040e-01 0.0000000000000000e+00  1.7474795765765560e-02 -2.3304036754580040e-01 0.0000000000000000e+00  1.0484877451574342e-02 -1.3982422050177920e-01 0.0000000000000000e+00  1.0484877451574342e-02 -1.3982422050177920e-01 0.0000000000000000e+00  -1.9640975009491846e-03 -9.2707025203041055e-02 0.0000000000000000e+00  -2.5127250834620332e-03 -1.1482285729857501e-01 0.0000000000000000e+00  -5.6820707100511455e-03 -2.4554731029583438e-01 0.0000000000000000e+00  2.3445656651567310e-04 -1.4448696314632997e-02 0.0000000000000000e+00  -3.5446630291583346e-03 -1.5618785274142694e-01 0.0000000000000000e+00  -3.0089192724887187e-03 -1.3457373980616419e-01 0.0000000000000000e+00  -4.5737078111865162e-03 -1.9751473362483035e-01 0.0000000000000000e+00  -4.0504630560988155e-03 -1.7638687675507661e-01 0.0000000000000000e+00  8.7373978713520001e-03 -1.1652018373875676e-01 0.0000000000000000e+00  8.7373978721021761e-03 -1.1652018373927867e-01 0.0000000000000000e+00  0.0000000000000000e+00 0.0000000000000000e+00 0.0000000000000000e+00  2.7959673239042915e-02 -3.7286458811437784e-01 0.0000000000000000e+00  2.5060553720243080e-02 -3.3420251236884263e-01 0.0000000000000000e+00  1.9851367993078343e-02 -2.6473385754141343e-01 0.0000000000000000e+00  1.9222275344823556e-02 -2.5634440430737981e-01 0.0000000000000000e+00  -7.5039525458864276e-03 -3.1687363148561620e-01 0.0000000000000000e+00  -5.0878442822081755e-03 -2.1815215084195178e-01 0.0000000000000000e+00  -5.6044817583112607e-03 -2.3903690427323279e-01 0.0000000000000000e+00  -1.9663421231263219e-03 -9.5146491880348322e-02 0.0000000000000000e+00  -2.9843524494240115e-03 -1.3689005137464183e-01 0.0000000000000000e+00  -1.4154058627705449e-03 -7.2321804242963916e-02 0.0000000000000000e+00  5.2424387301904197e-03 -6.9912110217892107e-02 0.0000000000000000e+00  -4.0039414330847742e-03 -1.7858092694218095e-01 0.0000000000000000e+00  -2.4416375786263673e-03 -1.1450378307940769e-01 0.0000000000000000e+00  -5.0279852194094589e-03 -2.2022960719817397e-01 0.0000000000000000e+00  -3.4706664182598719e-03 -1.5664367684403205e-01 0.0000000000000000e+00  -4.5016139443136514e-03 -1.9874458080691526e-01 0.0000000000000000e+00  -4.1492301754945498e-04 -3.1137596192827775e-02 0.0000000000000000e+00  -4.0379617623439361e-04 -3.2492471898905223e-02 0.0000000000000000e+00  -7.5754013755923869e-03 -3.2232194100701150e-01 0.0000000000000000e+00  2.7808358321548985e-03 -3.7084668243828535e-02 0.0000000000000000e+00  2.2196300351653927e-02 -2.9600540460067459e-01 0.0000000000000000e+00  -1.3751361721086377e-02 -5.6974037558356017e-01 0.0000000000000000e+00  -1.4389914246419840e-02 -5.9539382648226791e-01 0.0000000000000000e+00  1.1591019475056287e-02 -1.5457550840341019e-01 0.0000000000000000e+00  -1.3229571111398967e-02 -5.4614909891952956e-01 0.0000000000000000e+00  -1.0656462394762976e-02 -4.4614100404468998e-01 0.0000000000000000e+00  -1.0230756962689333e-02 -4.2903865510577993e-01 0.0000000000000000e+00  -8.9536441497145586e-03 -3.7772710635107393e-01 0.0000000000000000e+00  -8.5275695711887149e-03 -3.6060971116930668e-01 0.0000000000000000e+00  -1.2359269896427192e-02 -5.1455022100049863e-01 0.0000000000000000e+00  -1.1933568223513651e-02 -4.9744792023961260e-01 0.0000000000000000e+00  -8.0994280199723177e-03 -3.4344175331819260e-01 0.0000000000000000e+00  -8.1189190880550516e-03 -3.4082504705815053e-01 0.0000000000000000e+00  -1.4471571240880818e-02 -5.9627046180626653e-01 0.0000000000000000e+00  -1.1526764352247745e-02 -4.7773989557017721e-01 0.0000000000000000e+00  -1.1141521777211649e-02 -4.6226301729326874e-01 0.0000000000000000e+00  -1.2844328678489713e-02 -5.3067222357636346e-01 0.0000000000000000e+00  -1.3677129783762725e-02 -5.6398953847211275e-01 0.0000000000000000e+00  -9.8239541045920895e-03 -4.0933040991083991e-01 0.0000000000000000e+00  -9.4386963325702386e-03 -3.9385274604020576e-01 0.0000000000000000e+00  2.5465874256704192e-02 -3.3960778565277733e-01 0.0000000000000000e+00  3.0042285348808595e-03 -4.0063789153229896e-02 0.0000000000000000e+00  -6.0670188163075469e-04 -4.1255877037174447e-02 0.0000000000000000e+00  2.7959673239029693e-02 -3.7286458811436596e-01 0.0000000000000000e+00  1.7055496406034102e-02 -2.2744867548052633e-01 0.0000000000000000e+00  -9.3777256570855266e-03 -3.9490763174284654e-01 0.0000000000000000e+00  -9.8034227886611824e-03 -4.1201073938827604e-01 0.0000000000000000e+00  -1.2783344222743768e-02 -5.3172709532030871e-01 0.0000000000000000e+00  -1.3229287337253051e-02 -5.4950263074315564e-01 0.0000000000000000e+00  -1.1080537592173487e-02 -4.6331788971191834e-01 0.0000000000000000e+00  -1.1506239245270087e-02 -4.8042019273342751e-01 0.0000000000000000e+00  -1.2418638799985315e-02 -5.1343044514080804e-01 0.0000000000000000e+00  -1.1975950415697951e-02 -4.9550576225389414e-01 0.0000000000000000e+00  -9.0128980332592114e-03 -3.7660756110001281e-01 0.0000000000000000e+00  -8.5697637362149894e-03 -3.5866831312568676e-01 0.0000000000000000e+00  -1.0715831527589089e-02 -4.4502122752384238e-01 0.0000000000000000e+00  -1.0273143320542133e-02 -4.2709650230647123e-01 0.0000000000000000e+00  -1.0431402295798667e-03 -5.6140669404645849e-02 0.0000000000000000e+00  -6.3420243517576273e-03 -2.7258923143454095e-01 0.0000000000000000e+00  -6.0321946418032766e-03 -2.6304784339600235e-01 0.0000000000000000e+00  -4.8460671490022394e-02 -2.6197116352472222e-01 0.0000000000000000e+00  -6.8218790473020029e-03 -2.9183272228983975e-01 0.0000000000000000e+00  1.6543504253823619e-02 -2.2062085094856762e-01 0.0000000000000000e+00  1.1515648813513418e-02 -1.5357038043275928e-01 0.0000000000000000e+00  -5.4823099565665340e-04 -1.1948912092551615e-02 0.0000000000000000e+00  -2.7659490876891330e-03 -1.1878035797907537e-02 0.0000000000000000e+00  -7.6032579470674847e-03 -3.2549596030287176e-01 0.0000000000000000e+00  -5.6562042525648559e-02 -3.2427200061741679e-01 0.0000000000000000e+00  2.2403780352989899e-02 -2.9877231623606637e-01 0.0000000000000000e+00  7.7971520597449303e-03 -1.0398125443888384e-01 0.0000000000000000e+00  6.1161784940140674e-03 -8.1564128595653096e-02 0.0000000000000000e+00  2.0151712047387776e-02 -2.6873918553814380e-01 0.0000000000000000e+00  -6.5519317160499897e-03 -2.8385975673438335e-01 0.0000000000000000e+00  -5.4012450476181535e-02 -3.0349516355503525e-01 0.0000000000000000e+00  -7.0756368975229463e-03 -3.0467478223802691e-01 0.0000000000000000e+00  -5.8994840762013837e-03 -2.5129348486969505e-01 0.0000000000000000e+00  -6.3507983634132001e-03 -2.6966836050450277e-01 0.0000000000000000e+00  -5.9294717857841309e-03 -2.5666154582953865e-01 0.0000000000000000e+00  -5.5161430578766716e-03 -2.4223619656801057e-01 0.0000000000000000e+00  -4.5456635255716499e-02 -2.4121799460406293e-01 0.0000000000000000e+00  -6.1575722612829909e-03 -2.5910782657585146e-01 0.0000000000000000e+00  -4.2299387614371520e-02 -2.2046687328893769e-01 0.0000000000000000e+00  -5.0034154735900541e-03 -2.2142184870907519e-01 0.0000000000000000e+00  -7.2883061990582556e-03 -3.1084906984786220e-01 0.0000000000000000e+00  -7.1854310791348158e-03 -3.0085629443931605e-01 0.0000000000000000e+00  -6.8994656847986904e-03 -2.9186544236328338e-01 0.0000000000000000e+00  -7.6969754625240659e-03 -3.2173458224196244e-01 0.0000000000000000e+00  -4.4936279224470736e-03 -2.0060221897478686e-01 0.0000000000000000e+00  -3.8988378096099403e-02 -1.9971522443448605e-01 0.0000000000000000e+00  -5.4075185040202050e-03 -2.3554932376072715e-01 0.0000000000000000e+00  -2.2379646510335147e-03 -1.0377919937562566e-01 0.0000000000000000e+00  -3.9863357764397794e-03 -1.7977494501237742e-01 0.0000000000000000e+00  -3.5522828610561719e-02 -1.7896079078823482e-01 0.0000000000000000e+00  -1.4467400909256420e-02 -6.0099551623025671e-01 0.0000000000000000e+00  -6.4378310779043033e-02 -5.9975296511916798e-01 0.0000000000000000e+00  -1.4041699225583014e-02 -5.8389321563142937e-01 0.0000000000000000e+00  -6.3952609095262153e-02 -5.8265066452037007e-01 0.0000000000000000e+00  -1.1061787468817570e-02 -4.6417711170442322e-01 0.0000000000000000e+00  -6.0972696916937734e-02 -4.6293456076164735e-01 0.0000000000000000e+00  -1.0636085584602859e-02 -4.4707481186141873e-01 0.0000000000000000e+00  -6.0546995635996075e-02 -4.4583226079830068e-01 0.0000000000000000e+00  -1.0210383319692455e-02 -4.2997251038637663e-01 0.0000000000000000e+00  -6.0121297952389428e-02 -4.2872995767535499e-01 0.0000000000000000e+00  -9.7846819491528257e-03 -4.1287019963921873e-01 0.0000000000000000e+00  -5.9695603256015237e-02 -4.1162764371532756e-01 0.0000000000000000e+00  -9.3589868547161899e-03 -3.9576787997785207e-01 0.0000000000000000e+00  -5.9269880567637198e-02 -3.9452533156086239e-01 0.0000000000000000e+00  -8.9333018303652065e-03 -3.7866562927394232e-01 0.0000000000000000e+00  -5.8844048849383955e-02 -3.7742313300060054e-01 0.0000000000000000e+00  -8.5075827126782078e-03 -3.6156366343615820e-01 0.000000000