<?xml version="1.0"?>
<VTKFile type="UnstructuredGrid"  version="0.1"  >
<UnstructuredGrid>
<Piece  NumberOfPoints="867" NumberOfCells="1604">
<Points>
<DataArray  type="Float64"  NumberOfComponents="3"  format="ascii">-0.4874639560909119 0.111260466978157 0  -0.5 0 0  -0.4874639560909118 -0.1112604669781572 0  -0.4504844339512096 -0.2169418695587791 0  -0.3909157412340149 -0.3117449009293667 0  -0.3117449009293668 -0.3909157412340149 0  -0.2169418695587791 -0.4504844339512096 0  -0.1112604669781572 -0.4874639560909118 0  -3.061616997868383e-17 -0.5 0  0.1112604669781572 -0.4874639560909118 0  0.216941869558779 -0.4504844339512096 0  0.3117449009293667 -0.390915741234015 0  0.3909157412340147 -0.311744900929367 0  0.4504844339512095 -0.2169418695587791 0  0.4874639560909119 -0.111260466978157 0  0.5 0 0  0.4874639560909118 0.1112604669781572 0  0.4504844339512096 0.2169418695587791 0  0.3909157412340149 0.3117449009293667 0  0.3117449009293668 0.3909157412340149 0  0.2169418695587791 0.4504844339512096 0  0.1112604669781572 0.4874639560909118 0  3.061616997868383e-17 0.5 0  -0.1112604669781572 0.4874639560909118 0  -0.216941869558779 0.4504844339512096 0  -0.3117449009293667 0.390915741234015 0  -0.3909157412340147 0.311744900929367 0  -0.4504844339512095 0.2169418695587791 0  -1.1 1.1 0  -1.1 0 0  1.1 0 0  1.1 1.1 0  -1.1 -1.1 0  1.1 -1.1 0  0 -1.1 0  0 1.1 0  -1.1 -0.55 0  0.55 -1.1 0  1.1 -0.55 0  1.1 0.55 0  -1.1 0.55 0  -0.55 -1.1 0  -0.55 1.1 0  0.55 1.1 0  5.551115123125783e-17 1.665334536937735e-16 0  0.6663398863122794 0.6663398863122791 0  -0.6663398863122794 -0.6663398863122794 0  -0.6663398863122793 0.6663398863122795 0  0.6663398863122793 -0.6663398863122795 0  0.2883385204096159 -0.8240241488192156 0  -0.8 0 0  0.8 0 0  -0.2883385204096159 0.8240241488192156 0  0.2883385204096159 0.8240241488192156 0  -0.275 -1.1 0  -0.8137296345339549 0.3493292902542065 0  0.7691968053435165 -0.3403965171534225 0  -0.7691968053435165 -0.3403965171534224 0  0.8137296345339551 0.3493292902542064 0  -0.2705017153269808 -0.773049488531049 0  1.1 0.8250000000000001 0  0.8250000000000001 1.1 0  1.1 -0.8250000000000001 0  0.8250000000000001 -1.1 0  -1.1 0.8250000000000001 0  -0.8250000000000001 1.1 0  -0.8250000000000001 -1.1 0  -1.1 -0.8250000000000001 0  0 0.8113845792931161 0  0.007072477527379288 -0.8187738769332888 0  1.1 0.275 0  1.1 -0.275 0  -1.1 0.275 0  -0.275 1.1 0  0.275 -1.1 0  0.275 1.1 0  -1.1 -0.275 0  0.02816823497502773 -0.2499999999999999 0  -0.2374639560909118 -0.08309223200312943 0  0.25 -0.02816823497502778 0  -0.1778952633737171 0.1778952633737173 0  0.08309223200312948 0.2374639560909119 0  0.6875 0.9044521628094033 0  -0.9044521628094033 0.6875 0  0.8463389105089401 -0.8463389105089401 0  0.9044521628094033 0.6875 0  -0.8463389105089401 -0.8463389105089401 0  -0.767786457710924 0.8750783326923629 0  0.8677516869574191 -0.5506979707488757 0  -0.8677516869574192 -0.5506979707488756 0  -0.5050311643355169 -0.8555004540247985 0  -0.5701556468586396 -0.4567865287721606 0  0.6249950965330108 -0.8876837002882089 0  0.5701556468586395 -0.4567865287721607 0  0.3928657626645344 -0.6124864144470425 0  -0.592653592010189 0.4393117263502035 0  -0.4179614947106146 0.6138426574647371 0  -0.5292344651737774 0.8619935788915527 0  0.5926535920101891 0.4393117263502033 0  0.4248107255337702 0.6192605333809361 0  -0.4469834162493513 -0.6401729300299475 0  0.9006739696166555 0.9006739696166555 0  0.4798018989697899 0.9045243416864952 0  -0.9096531673941256 -0.1815147264791358 0  -0.9500000000000001 0 0  0.9500000000000001 0 0  0.6521320428699586 0.2281908711319545 0  -0.687773594604006 0.1793452688508528 0  0.1381474836556521 0.9550753510059677 0  -0.1375 0.9556922896465581 0  -0.1375 -0.9558400573365238 0  -0.6783448506972298 -0.9500094123501752 0  -0.9625000000000001 1.1 0  -1.1 0.9625000000000001 0  0.1452038542000676 -0.9554164009279873 0  0.875 -0.178378888693158 0  0.6793503582950227 -0.1556839898321528 0  0.1503116767474856 -0.6817816126977135 0  -0.1501232052114358 0.6818807752649215 0  0.224843964788616 0.6425671340716849 0  0.4403992229191585 -0.9418832717201049 0  -0.9255923214149538 0.1917223701372979 0  0.925592321414954 0.1917223701372979 0  -0.1654674019212394 -0.2633398615884157 0  0.2633398615884157 0.1654674019212394 0  0.2199174206378054 -0.2199174206378056 0  -0.6321077388721966 -0.2211840641163827 0  0.9496930499643419 -0.3840533576546167 0  -1.1 -0.4125 0  0.4892209988974057 -0.7667099924779079 0  -0.9622729494512566 -0.7061399025375782 0  1.1 -0.6875 0  -0.9625000000000001 -1.1 0  1.1 -0.9625000000000001 0  -0.07449011661556058 -0.6611180704222235 0  0.9201558410236723 0.5020324872420169 0  -0.7980259563196859 0.5347968030121897 0  -1.1 0.4125 0  -0.4125 1.1 0  -0.9404822608825543 0.89375 0  -0.9310348978548471 -0.392797243827761 0  -0.3451385467768902 -0.9355288124011237 0  0.7480397761709329 0.5143504158157237 0  -0.2824862267198052 -0.605330377080244 0  -0.9520915579684144 0.48125 0  0.5940338165669689 -0.295094959178099 0  -0.3171400979238754 0.07238515781857774 0  -0.07238515781857757 0.3171400979238754 0  -0.6875 1.1 0  0.7232332684232805 -0.4901806172551281 0  -0.7232332684232805 -0.4901806172551281 0  0.00338813553846288 0.655692289646558 0  -0.08845398977724174 -0.1280756351071957 0  0.11473577351878 -0.1051816471190254 0  0.1280756351071958 0.08845398977724203 0  -1.1 -0.9625000000000001 0  0.9625000000000001 -1.1 0  0.7921297170957761 0.7921297170957761 0  -0.3437500000000001 0.9650125732259328 0  0.5836124443421735 0.7936878997714175 0  0.65 0 0  -0.65 0 0  0.9664883964774059 -0.7562500000000001 0  -0.8124211746991734 -0.700257622122046 0  0.8170566656840113 -0.6956221311372082 0  0.963312045727999 0.3369953739214661 0  0.754216364371443 -0.9663173195149415 0  -0.9646845642933237 0.3341209191946947 0  0.4248945845939051 0.7671766797892229 0  0.1444746423966985 0.8107378728962151 0  1.1 -0.1375 0  -0.61875 0.9740926301799909 0  -0.4436314992969004 0.4648441946571232 0  0.446749005251518 0.4467490052515179 0  -0.6425762581319699 -0.809434358471983 0  -0.4237102526659775 -0.4914836457392125 0  0.3417556154465088 0.9649161802301053 0  1.1 0.9625000000000001 0  0.9625000000000001 1.1 0  -0.1346972861082186 -0.8140182440632158 0  0.004599123315319175 -0.9594136686545218 0  -0.7630020842896895 -0.1462286046077213 0  0.8937500000000002 -0.9780554058317621 0  -0.89375 -0.978055405831762 0  0.5307580899412138 -0.6335465795469118 0  -0.6735650381412928 0.3215315700647676 0  -0.2926124573178824 0.6815987298140569 0  0.2832002730267919 -0.9620860716296038 0  0.7808089105174282 0.1495688930967883 0  0.0003385874080656659 0.962016808709899 0  0.1396097490202794 -0.3341837278978841 0  -0.06174656588772961 -0.356871135866022 0  0.356871135866022 0.06174656588772962 0  0.3502422169756049 -0.1225550522669033 0  -0.3141898486624634 -0.1974185664662481 0  0.2104723163774097 0.2947389523832234 0  0.6875 -1.1 0  -0.4125 -1.1 0  1.1 -0.4125 0  1.1 0.1375 0  -1.1 0.1375 0  0.1375 -1.1 0  -0.6875 -1.1 0  -0.1375 -1.1 0  -0.1375 1.1 0  0.4125 -1.1 0  0.1375 1.1 0  -1.1 -0.1375 0  1.1 0.6875 0  -1.1 0.6875 0  0.6875 1.1 0  -1.1 -0.6875 0  1.1 0.4125 0  0.4125 1.1 0  -0.151176608331977 0.8191260725180923 0  0.1515495044630543 -0.8186697855688289 0  -0.526486564518479 0.7142024298560653 0  -0.5573848506159964 0.5762310871691408 0  0.720331182364698 -0.7909582169688955 0  0.9819791638121483 -0.622318971622832 0  -0.5246985929339253 -0.3296899772059645 0  0.3145426809485556 0.5426731239273453 0  -0.1846255388341355 0.04213957444465674 0  -0.0421395744446566 0.1846255388341357 0  0.4281875356850639 -0.4739192884886087 0  -0.4751434546088947 0.9830941382835867 0  -0.5218871269896868 0.327923416068668 0  0.5218871269896868 0.3279234160686678 0  -0.4014303854325054 0.7561410010683971 0  -0.4679926397922863 -0.9812422187131735 0  -0.3026615653521558 0.55036344815324 0  -0.5397081829995244 -0.7306642780966139 0  0.9911032692061623 -0.8937500000000002 0  -0.9763871746165429 -0.8739193086721466 0  0.254260682847422 -0.5864806602798783 0  -0.3643001290028616 -0.08087986416259899 0  -0.2060073154462889 0.3087931799966986 0  -0.3087931799966984 0.2060073154462891 0  0.05162583822629099 0.3675962661090195 0  -0.3863870983940469 -0.818198469145103 0  -0.7178509105469472 0.438636590802872 0  0.5248650937143274 0.544333731959085 0  0.5394102004945671 0.6744287826185811 0  0.9736442263428986 -0.2589551576123615 0  -0.6466016324836857 -0.3429461438153842 0  0.9882826862706525 -0.5001445473219641 0  -0.5692973074531109 0.1992057435931062 0  0.2679332586338489 -0.7057353379713655 0  0.97472163659182 0.7953658887002701 0  0.7953658887002701 0.97472163659182 0  -0.9858395265700997 0.7795544025957204 0  0.61875 1.002226081404702 0  -1.002226081404702 0.61875 0  1.002226081404702 0.61875 0  -0.7872795491246395 0.6557248622438615 0  0.7891733379062652 0.6344142792927272 0  -0.65214580987448 0.8022588499898194 0  -0.7374080037760796 0.9910247317792732 0  0.6858107639797646 0.3516178482725742 0  -0.8046606458159516 0.2243913597168291 0  -0.89375 1.00303902010377 0  0.04286108681466963 -0.6175947077223141 0  0.3212593971299798 0.7106672754906794 0  -0.6724373947869903 0.5480412062922982 0  0.6060749141796563 -0.7664549984213634 0  0.828899546032142 -0.4406615706566396 0  -0.9839844221761632 -0.5864783208180512 0  -0.8194224057691728 0.7691241460452193 0  0.6634571383747863 -0.387956122136344 0  0.6201350802686155 -0.56069693733135 0  -0.6285070347487245 -0.5568542402547564 0  0.4882373739369446 -0.3747481136125761 0  0.3811057632069687 -0.727045806314891 0  -0.8278834699170806 -0.4430880104260875 0  -0.875 0.08786676842428248 0  0.9801792185070523 -0.1176453979923067 0  -0.763389314798812 -0.5971032269598143 0  0.6706650544504121 0.1139123170284505 0  -0.2356231320439919 -0.8874537102254196 0  0.7577073913635143 -0.5985815095441068 0  0.8772193009776941 0.08814930188612236 0  -0.1918772948459984 -0.6831435764250359 0  0.6383102603939704 
[...]
<CellData  Scalars="f_48"> 
<DataArray  type="Float64"  Name="f_48"  format="ascii">0.0000000000000000e+00   0.0000000000000000e+00   1.0000000000000000e+00   0.0000000000000000e+00   0.0000000000000000e+00   0.0000000000000000e+00   1.0000000000000000e+00   1.0000000000000000e+00   0.0000000000000000e+00   1.0000000000000000e+00   1.0000000000000000e+00   1.0000000000000000e+00   1.0000000000000000e+00   0.0000000000000000e+00   1.0000000000000000e+00   1.0000000000000000e+00   0.0000000000000000e+00   1.0000000000000000e+00   0.0000000000000000e+00   1.0000000000000000e+00   1.0000000000000000e+00   0.0000000000000000e+00   1.0000000000000000e+00   0.0000000000000000e+00   1.0000000000000000e+00   0.0000000000000000e+00   1.0000000000000000e+00   1.0000000000000000e+00   0.0000000000000000e+00   1.0000000000000000e+00   1.0000000000000000e+00   0.0000000000000000e+00   1.0000000000000000e+00   0.0000000000000000e+00   1.0000000000000000e+00   0.0000000000000000e+00   1.0000000000000000e+00   1.0000000000000000e+00   1.0000000000000000e+00   0.0000000000000000e+00   0.0000000000000000e+00   0.0000000000000000e+00   0.0000000000000000e+00   0.0000000000000000e+00   0.0000000000000000e+00   0.0000000000000000e+00   0.0000000000000000e+00   0.0000000000000000e+00   0.0000000000000000e+00   0.0000000000000000e+00   0.0000000000000000e+00   0.0000000000000000e+00   0.0000000000000000e+00   0.0000000000000000e+00   1.0000000000000000e+00   1.0000000000000000e+00   0.0000000000000000e+00   0.0000000000000000e+00   0.0000000000000000e+00   0.0000000000000000e+00   0.0000000000000000e+00   0.0000000000000000e+00   0.0000000000000000e+00   0.0000000000000000e+00   0.0000000000000000e+00   0.0000000000000000e+00   0.0000000000000000e+00   0.0000000000000000e+00   0.0000000000000000e+00   0.0000000000000000e+00   0.0000000000000000e+00   0.0000000000000000e+00   0.0000000000000000e+00   0.0000000000000000e+00   0.0000000000000000e+00   0.0000000000000000e+00   0.0000000000000000e+00   0.0000000000000000e+00   0.0000000000000000e+00   0.0000000000000000e+00   0.0000000000000000e+00   0.0000000000000000e+00   0.0000000000000000e+00   0.0000000000000000e+00   0.0000000000000000e+00   0.0000000000000000e+00   0.0000000000000000e+00   0.0000000000000000e+00   0.0000000000000000e+00   0.0000000000000000e+00   0.0000000000000000e+00   0.0000000000000000e+00   0.0000000000000000e+00   0.0000000000000000e+00   0.0000000000000000e+00   0.0000000000000000e+00   0.0000000000000000e+00   0.0000000000000000e+00   0.0000000000000000e+00   0.0000000000000000e+00   0.0000000000000000e+00   0.0000000000000000e+00   0.0000000000000000e+00   1.0000000000000000e+00   1.0000000000000000e+00   1.0000000000000000e+00   1.0000000000000000e+00   1.0000000000000000e+00   1.0000000000000000e+00   1.0000000000000000e+00   0.0000000000000000e+00   1.0000000000000000e+00   1.0000000000000000e+00   0.0000000000000000e+00   0.0000000000000000e+00   0.0000000000000000e+00   0.0000000000000000e+00   0.0000000000000000e+00   0.0000000000000000e+00   0.0000000000000000e+00   0.0000000000000000e+00   0.0000000000000000e+00   0.0000000000000000e+00   0.0000000000000000e+00   0.0000000000000000e+00   0.0000000000000000e+00   0.0000000000000000e+00   0.0000000000000000e+00   0.0000000000000000e+00   0.0000000000000000e+00   0.0000000000000000e+00   0.0000000000000000e+00   0.0000000000000000e+00   0.0000000000000000e+00   0.0000000000000000e+00   0.0000000000000000e+00   0.0000000000000000e+00   0.0000000000000000e+00   0.0000000000000000e+00   0.0000000000000000e+00   0.0000000000000000e+00   0.0000000000000000e+00   0.0000000000000000e+00   0.0000000000000000e+00   0.0000000000000000e+00   0.0000000000000000e+00   0.0000000000000000e+00   0.0000000000000000e+00   0.0000000000000000e+00   0.0000000000000000e+00   0.0000000000000000e+00   0.0000000000000000e+00   0.0000000000000000e+00   0.0000000000000000e+00   0.0000000000000000e+00   0.0000000000000000e+00   0.0000000000000000e+00   0.0000000000000000e+00   0.0000000000000000e+00   0.0000000000000000e+00   0.0000000000000000e+00   0.0000000000000000e+00   0.0000000000000000e+00   0.0000000000000000e+00   0.0000000000000000e+00   0.0000000000000000e+00   0.0000000000000000e+00   0.0000000000000000e+00   0.0000000000000000e+00   0.0000000000000000e+00   0.0000000000000000e+00   0.0000000000000000e+00   0.0000000000000000e+00   0.0000000000000000e+00   0.0000000000000000e+00   0.0000000000000000e+00   0.0000000000000000e+00   1.0000000000000000e+00   1.0000000000000000e+00   1.0000000000000000e+00   1.0000000000000000e+00   1.0000000000000000e+00   1.0000000000000000e+00   0.0000000000000000e+00   0.0000000000000000e+00   0.0000000000000000e+00   0.0000000000000000e+00   0.0000000000000000e+00   0.0000000000000000e+00   0.0000000000000000e+00   0.0000000000000000e+00   0.0000000000000000e+00   0.0000000000000000e+00   0.0000000000000000e+00   0.0000000000000000e+00   0.0000000000000000e+00   0.0000000000000000e+00   0.0000000000000000e+00   0.0000000000000000e+00   0.0000000000000000e+00   0.0000000000000000e+00   0.0000000000000000e+00   0.0000000000000000e+00   0.0000000000000000e+00   0.0000000000000000e+00   0.0000000000000000e+00   0.0000000000000000e+00   0.0000000000000000e+00   0.0000000000000000e+00   0.0000000000000000e+00   0.0000000000000000e+00   0.0000000000000000e+00   0.0000000000000000e+00   0.0000000000000000e+00   0.0000000000000000e+00   0.0000000000000000e+00   0.0000000000000000e+00   1.0000000000000000e+00   1.0000000000000000e+00   1.0000000000000000e+00   1.0000000000000000e+00   0.0000000000000000e+00   0.0000000000000000e+00   0.0000000000000000e+00   0.0000000000000000e+00   0.0000000000000000e+00   0.0000000000000000e+00   0.0000000000000000e+00   0.0000000000000000e+00   1.0000000000000000e+00   1.0000000000000000e+00   1.0000000000000000e+00   1.0000000000000000e+00   1.0000000000000000e+00   1.0000000000000000e+00   0.0000000000000000e+00   0.0000000000000000e+00   0.0000000000000000e+00   0.0000000000000000e+00   0.0000000000000000e+00   0.0000000000000000e+00   0.0000000000000000e+00   0.0000000000000000e+00   0.0000000000000000e+00   0.0000000000000000e+00   0.0000000000000000e+00   1.0000000000000000e+00   0.0000000000000000e+00   0.0000000000000000e+00   0.0000000000000000e+00   0.0000000000000000e+00   0.0000000000000000e+00   0.0000000000000000e+00   0.0000000000000000e+00   0.0000000000000000e+00   0.0000000000000000e+00   0.0000000000000000e+00   0.0000000000000000e+00   0.0000000000000000e+00   0.0000000000000000e+00   0.0000000000000000e+00   0.0000000000000000e+00   0.0000000000000000e+00   0.0000000000000000e+00   0.0000000000000000e+00   0.0000000000000000e+00   0.0000000000000000e+00   0.0000000000000000e+00   0.0000000000000000e+00   0.0000000000000000e+00   0.0000000000000000e+00   0.0000000000000000e+00   0.0000000000000000e+00   0.0000000000000000e+00   0.0000000000000000e+00   0.0000000000000000e+00   0.0000000000000000e+00   0.0000000000000000e+00   0.0000000000000000e+00   0.0000000000000000e+00   0.0000000000000000e+00   0.0000000000000000e+00   0.0000000000000000e+00   0.0000000000000000e+00   0.0000000000000000e+00   0.0000000000000000e+00   0.0000000000000000e+00   0.0000000000000000e+00   0.0000000000000000e+00   0.0000000000000000e+00   0.0000000000000000e+00   0.0000000000000000e+00   0.0000000000000000e+00   0.0000000000000000e+00   0.0000000000000000e+00   0.0000000000000000e+00   0.0000000000000000e+00   1.0000000000000000e+00   1.0000000000000000e+00   1.0000000000000000e+00   1.0000000000000000e+00   1.0000000000000000e+00   1.0000000000000000e+00   1.0000000000000000e+00   0.0000000000000000e+00   1.0000000000000000e+00   1.0000000000000000e+00   1.0000000000000000e+00   1.0000000000000000e+00   0.0000000000000000e+00   0.0000000000000000e+00   0.0000000000000000e+00   0.0000000000000000e+00   0.0000000000000000e+00   0.0000000000000000e+00   0.0000000000000000e+00   0.0000000000000000e+00   0.0000000000000000e+00   0.0000000000000000e+00   0.0000000000000000e+00   0.0000000000000000e+00   0.0000000000000000e+00   0.0000000000000000e+00   0.0000000000000000e+00   0.0000000000000000e+00   0.0000000000000000e+00   0.0000000000000000e+00   0.0000000000000000e+00   0.0000000000000000e+00   0.0000000000000000e+00   0.0000000000000000e+00   0.0000000000000000e+00   0.0000000000000000e+00   0.0000000000000000e+00   0.0000000000000000e+00   0.0000000000000000e+00   0.0000000000000000e+00   0.0000000000000000e+00   0.0000000000000000e+00   0.0000000000000000e+00   0.0000000000000000e+00   0.0000000000000000e+00   0.0000000000000000e+00   0.0000000000000000e+00   0.0000000000000000e+00   0.0000000000000000e+00   0.0000000000000000e+00   0.0000000000000000e+00   0.0000000000000000e+00   0.0000000000000000e+00   1.0000000000000000e+00   1.0000000000000000e+00   1.0000000000000000e+00   1.0000000000000000e+00   0.0000000000000000e+00   0.0000000000000000e+00   0.0000000000000000e+00   0.0000000000000000e+00   0.0000000000000000e+00   0.0000000000000000e+00   0.0000000000000000e+00   0.0000000000000000e+00   0.0000000000000000e+00   0.0000000000000000e+00   0.0000000000000000e+00   0.0000000000000000e+00   0.0000000000000000e+00   0.0000000000000000e+00   0.0000000000000000e+00   0.0000000000000000e+00   0.0000000000000000e+00   0.0000000000000000e+00   0.0000000000000000e+00   1.0000000000000000e+00   1.0000000000000000e+00   1.0000000000000000e+00   1.0000000000000000e+00   1.0000000000000000e+00   1.0000000000000000e+00   1.0000000000000000e+00   1.0000000000000000e+00   0.0000000000000000e+00   0.0000000000000000e+00   0.0000000000000000e+00   0.0000000000000000e+00   0.0000000000000000e+00   0.0000000000000000e+00   0.0000000000000000e+00   0.0000000000000000e+00   0.0000000000000000e+00   0.0000000000000000e+00   0.0000000000000000e+00   0.0000000000000000e+00   0.0000000000000000e+00   0.0000000000000000e+00   0.0000000000000000e+00   0.0000000000000000e+00   0.0000000000000000e+00   0.0000000000000000e+00   0.0000000000000000e+00   0.0000000000000000e+00   0.0000000000000000e+00   0.0000000000000000e+00   0.0000000000000000e+00   0.0000000000000000e+00   0.0000000000000000e+00   0.0000000000000000e+00   0.0000000000000000e+00   0.0000000000000000e+00   0.0000000000000000e+00   0.0000000000000000e+00   0.0000000000000000e+00   0.0000000000000000e+00   0.0000000000000000e+00   0.0000000000000000e+00   0.0000000000000000e+00   0.0000000000000000e+00   0.0000000000000000e+00   0.0000000000000000e+00   0.0000000000000000e+00   0.0000000000000000e+00   0.0000000000000000e+00   0.0000000000000000e+00   0.0000000000000000e+00   0.0000000000000000e+00   0.0000000000000000e+00   0.0000000000000000e+00   0.0000000000000000e+00   0.0000000000000000e+00   0.0000000000000000e+00   0.0000000000000000e+00   0.0000000000000000e+00   0.0000000000000000e+00   0.0000000000000000e+00   0.0000000000000000e+00   0.0000000000000000e+00   0.0000000000000000e+00   0.0000000000000000e+00   0.0000000000000000e+00   0.0000000000000000e+00   0.0000000000000000e+00   0.0000000000000000e+00   0.0000000000000000e+00   0.0000000000000000e+00   0.0000000000000000e+00   0.0000000000000000e+00   0.0000000000000000e+00   0.0000000000000000e+00   0.0000000000000000e+00   0.0000000000000000e+00   0.0000000000000000e+00   0.0000000000000000e+00   0.0000000000000000e+00   0.0000000000000000e+00   0.0000000000000000e+00   0.0000000000000000e+00   0.0000000000000000e+00   0.0000000000000000e+00   0.0000000000000000e+00   0.0000000000000000e+00   0.0000000000000000e+00   0.0000000000000000e+00   0.0000000000000000e+00   0.0000000000000000e+00   0.0000000000000000e+00   0.0000000000000000e+00   0.0000000000000000e+00   0.0000000000000000e+00   0.0000000000000000e+00   0.0000000000000000e+00   0.0000000000000000e+00   0.0000000000000000e+00   0.0000000000000000e+00   0.0000000000000000e+00   0.0000000000000000e+00   0.0000000000000000e+00   0.0000000000000000e+00   0.0000000000000000e+00   0.0000000000000000e+00   0.0000000000000000e+00   0.0000000000000000e+00   0.0000000000000000e+00   1.0000000000000000e+00   1.0000000000000000e+00   0.0000000000000000e+00   0.0000000000000000e+00   0.0000000000000000e+00   0.0000000000000000e+00   0.0000000000000000e+00   0.0000000000000000e+00   0.0000000000000000e+00   0.0000000000000000e+00   1.0000000000000000e+00   0.0000000000000000e+00   0.0000000000000000e+00   0.0000000000000000e+00   0.0000000000000000e+00   0.0000000000000000e+00   0.0000000000000000e+00   0.0000000000000000e+00   0.0000000000000000e+00   0.0000000000000000e+00   0.0000000000000000e+00   0.0000000000000000e+00   0.0000000000000000e+00   0.0000000000000000e+00   0.0000000000000000e+00   0.0000000000000000e+00   0.0000000000000000e+00   0.0000000000000000e+00   0.0000000000000000e+00   0.0000000000000000e+00   0.0000000000000000e+00   0.0000000000000000e+00   0.0000000000000000e+00   0.0000000000000000e+00   0.0000000000000000e+00   0.0000000000000000e+00   0.0000000000000000e+00   0.0000000000000000e+00   0.0000000000000000e+00   0.0000000000000000e+00   0.0000000000000000e+00   0.0000000000000000e+00   0.0000000000000000e+00   0.0000000000000000e+00   0.0000000000000000e+00   1.0000000000000000e+00   1.0000000000000000e+00   0.0000000000000000e+00   0.0000000000000000e+00   0.0000000000000000e+00   0.0000000000000000e+00   0.0000000000000000e+00   0.0000000000000000e+00   0.0000000000000000e+00   0.0000000000000000e+00   0.0000000000000000e+00   0.0000000000000000e+00   0.0000000000000000e+00   0.0000000000000000e+00   0.0000000000000000e+00   0.0000000000000000e+00   0.0000000000000000e+00   0.0000000000000000e+00   0.0000000000000000e+00   0.0000000000000000e+00   0.0000000000000000e+00   0.0000000000000000e+00   1.0000000000000000e+00   1.0000000000000000e+00   0.0000000000000000e+00   0.0000000000000000e+00   0.0000000000000000e+00   0.0000000000000000e+00   0.0000000000000000e+00   0.0000000000000000e+00   0.0000000000000000e+00   0.0000000000000000e+00   0.0000000000000000e+00   0.0000000000000000e+00   0.0000000000000000e+00   0.0000000000000000e+00   0.0000000000000000e+00   0.0000000000000000e+00   0.0000000000000000e+00   0.0000000000000000e+00   0.0000000000000000e+00   0.0000000000000000e+00   0.0000000000000000e+00   0.0000000000000000e+00   0.0000000000000000e+00   0.0000000000000000e+00   0.0000000000000000e+00   0.0000000000000000e+00   0.0000000000000000e+00   0.0000000000000000e+00   0.0000000000000000e+00   0.0000000000000000e+00   0.0000000000000000e+00   0.0000000000000000e+00   0.0000000000000000e+00   0.0000000000000000e+00   0.0000000000000000e+00   1.0000000000000000e+00   1.0000000000000000e+00   1.0000000000000000e+00   1.0000000000000000e+00   1.0000000000000000e+00   1.0000000000000000e+00   1.0000000000000000e+00   1.0000000000000000e+00   1.0000000000000000e+00   1.0000000000000000e+00   1.0000000000000000e+00   1.0000000000000000e+00   0.0000000000000000e+00   0.0000000000000000e+00   0.0000000000000000e+00   0.0000000000000000e+00   0.0000000000000000e+00   0.0000000000000000e+00   0.0000000000000000e+00   0.0000000000000000e+00   0.0000000000000000e+00   0.0000000000000000e+00   0.0000000000000000e+00   0.0000000000000000e+00   0.0000000000000000e+00   0.0000000000000000e+00   1.0000000000000000e+00   1.0000000000000000e+00   1.0000000000000000e+00   1.0000000000000000e+00   1.0000000000000000e+00   0.0000000000000000e+00   1.0000000000000000e+00   1.0000000000000000e+00   1.0000000000000000e+00   1.0000000000000000e+00   1.0000000000000000e+00   0.0000000000000000e+00   1.0000000000000000e+00   1.0000000000000000e+00   1.0000000000000000e+00   1.0000000000000000e+00   1.0000000000000000e+00   1.0000000000000000e+00   1.0000000000000000e+00   1.0000000000000000e+00   1.0000000000000000e+00   1.0000000000000000e+00   0.0000000000000000e+00   1.0000000000000000e+00   1.0000000000000000e+00   1.0000000000000000e+00   0.0000000000000000e+00   0.0000000000000000e+00   1.0000000000000000e+00   1.0000000000000000e+00   0.0000000000000000e+00   0.0000000000000000e+00   0.0000000000000000e+00   0.0000000000000000e+00   0.0000000000000000e+00   0.0000000000000000e+00   0.0000000000000000e+00   0.0000000000000000e+00   0.0000000000000000e+00   0.0000000000000000e+00   0.0000000000000000e+00   0.0000000000000000e+00   0.0000000000000000e+00   0.0000000000000000e+00   0.0000000000000000e+00   0.0000000000000000e+00   0.0000000000000000e+00   0.0000000000000000e+00   0.0000000000000000e+00   0.0000000000000000e+00   0.0000000000000000e+00   0.0000000000000000e+00   0.0000000000000000e+00   0.0000000000000000e+00   0.0000000000000000e+00   0.0000000000000000e+00   0.0000000000000000e+00   0.0000000000000000e+00   0.0000000000000000e+00   0.0000000000000000e+00   0.0000000000000000e+00   0.0000000000000000e+00   0.0000000000000000e+00   0.0000000000000000e+00   0.0000000000000000e+00   0.0000000000000000e+00   1.0000000000000000e+00   1.0000000000000000e+00   1.0000000000000000e+00   1.0000000000000000e+00   0.0000000000000000e+00   0.0000000000000000e+00   0.0000000000000000e+00   0.0000000000000000e+00   0.0000000000000000e+00   0.0000000000000000e+00   0.0000000000000000e+00   0.0000000000000000e+00   0.0000000000000000e+00   0.0000000000000000e+00   0.0000000000000000e+00   0.0000000000000000e+00   0.0000000000000000e+00   0.0000000000000000e+00   0.0000000000000000e+00   0.0000000000000000e+00   0.0000000000000000e+00   1.0000000000000000e+00   0.0000000000000000e+00   0.0000000000000000e+00   0.0000000000000000e+00   0.0000000000000000e+00   0.0000000000000000e+00   0.0000000000000000e+00   0.0000000000000000e+00   0.0000000000000000e+00   0.0000000000000000e+00   0.0000000000000000e+00   0.0000000000000000e+00   0.0000000000000000e+00   0.0000000000000000e+00   0.0000000000000000e+00   0.0000000000000000e+00   0.0000000000000000e+00   0.0000000000000000e+00   0.0000000000000000e+00   0.0000000000000000e+00   0.0000000000000000e+00   0.0000000000000000e+00   0.0000000000000000e+00   0.0000000000000000e+00   0.0000000000000000e+00   0.0000000000000000e+00   0.0000000000000000e+00   0.0000000000000000e+00   0.0000000000000000e+00   0.0000000000000000e+00   0.0000000000000000e+00   0.0000000000000000e+00   0.0000000000000000e+00   0.0000000000000000e+00   0.0000000000000000e+00   0.0000000000000000e+00   0.0000000000000000e+00   0.0000000000000000e+00   0.0000000000000000e+00   0.0000000000000000e+00   0.0000000000000000e+00   0.0000000000000000e+00   0.0000000000000000e+00   0.0000000000000000e+00   0.0000000000000000e+00   1.0000000000000000e+00   1.0000000000000000e+00   1.0000000000000000e+00   1.0000000000000000e+00   1.0000000000000000e+00   1.0000000000000000e+00   1.0000000000000000e+00   1.0000000000000000e+00   0.0000000000000000e+00   0.0000000000000000e+00   0.0000000000000000e+00   0.0000000000000000e+00   0.0000000000000000e+00   0.0000000000000000e+00   0.0000000000000000e+00   0.0000000000000000e+00   0.0000000000000000e+00   0.0000000000000000e+00   0.0000000000000000e+00   0.0000000000000000e+00   0.0000000000000000e+00   0.0000000000000000e+00   0.0000000000000000e+00   0.0000000000000000e+00   0.0000000000000000e+00   0.0000000000000000e+00   0.0000000000000000e+00   0.0000000000000000e+00   0.0000000000000000e+00   0.0000000000000000e+00   0.0000000000000000e+00   0.0000000000000000e+00   0.0000000000000000e+00   0.0000000000000000e+00   0.0000000000000000e+00   0.0000000000000000e+00   0.0000000000000000e+00   0.0000000000000000e+00   0.0000000000000000e+00   0.0000000000000000e+00   0.0000000000000000e+00   0.0000000000000000e+00   0.0000000000000000e+00   0.0000000000000000e+00   0.0000000000000000e+00   0.0000000000000000e+00   0.0000000000000000e+00   0.0000000000000000e+00   0.0000000000000000e+00   0.0000000000000000e+00   0.0000000000000000e+00   0.0000000000000000e+00   0.0000000000000000e+00   1.0000000000000000e+00   0.00000000000000