<?xml version="1.0"?>
<VTKFile type="UnstructuredGrid"  version="0.1"  >
<UnstructuredGrid>
<Piece  NumberOfPoints="867" NumberOfCells="1604">
<Points>
<DataArray  type="Float64"  NumberOfComponents="3"  format="ascii">-0.4874639560909119 0.111260466978157 0  -0.5 0 0  -0.4874639560909118 -0.1112604669781572 0  -0.4504844339512096 -0.2169418695587791 0  -0.3909157412340149 -0.3117449009293667 0  -0.3117449009293668 -0.3909157412340149 0  -0.2169418695587791 -0.4504844339512096 0  -0.1112604669781572 -0.4874639560909118 0  -3.061616997868383e-17 -0.5 0  0.1112604669781572 -0.4874639560909118 0  0.216941869558779 -0.4504844339512096 0  0.3117449009293667 -0.390915741234015 0  0.3909157412340147 -0.311744900929367 0  0.4504844339512095 -0.2169418695587791 0  0.4874639560909119 -0.111260466978157 0  0.5 0 0  0.4874639560909118 0.1112604669781572 0  0.4504844339512096 0.2169418695587791 0  0.3909157412340149 0.3117449009293667 0  0.3117449009293668 0.3909157412340149 0  0.2169418695587791 0.4504844339512096 0  0.1112604669781572 0.4874639560909118 0  3.061616997868383e-17 0.5 0  -0.1112604669781572 0.4874639560909118 0  -0.216941869558779 0.4504844339512096 0  -0.3117449009293667 0.390915741234015 0  -0.3909157412340147 0.311744900929367 0  -0.4504844339512095 0.2169418695587791 0  -1.1 1.1 0  -1.1 0 0  1.1 0 0  1.1 1.1 0  -1.1 -1.1 0  1.1 -1.1 0  0 -1.1 0  0 1.1 0  -1.1 -0.55 0  0.55 -1.1 0  1.1 -0.55 0  1.1 0.55 0  -1.1 0.55 0  -0.55 -1.1 0  -0.55 1.1 0  0.55 1.1 0  5.551115123125783e-17 1.665334536937735e-16 0  0.6663398863122794 0.6663398863122791 0  -0.6663398863122794 -0.6663398863122794 0  -0.6663398863122793 0.6663398863122795 0  0.6663398863122793 -0.6663398863122795 0  0.2883385204096159 -0.8240241488192156 0  -0.8 0 0  0.8 0 0  -0.2883385204096159 0.8240241488192156 0  0.2883385204096159 0.8240241488192156 0  -0.275 -1.1 0  -0.8137296345339549 0.3493292902542065 0  0.7691968053435165 -0.3403965171534225 0  -0.7691968053435165 -0.3403965171534224 0  0.8137296345339551 0.3493292902542064 0  -0.2705017153269808 -0.773049488531049 0  1.1 0.8250000000000001 0  0.8250000000000001 1.1 0  1.1 -0.8250000000000001 0  0.8250000000000001 -1.1 0  -1.1 0.8250000000000001 0  -0.8250000000000001 1.1 0  -0.8250000000000001 -1.1 0  -1.1 -0.8250000000000001 0  0 0.8113845792931161 0  0.007072477527379288 -0.8187738769332888 0  1.1 0.275 0  1.1 -0.275 0  -1.1 0.275 0  -0.275 1.1 0  0.275 -1.1 0  0.275 1.1 0  -1.1 -0.275 0  0.02816823497502773 -0.2499999999999999 0  -0.2374639560909118 -0.08309223200312943 0  0.25 -0.02816823497502778 0  -0.1778952633737171 0.1778952633737173 0  0.08309223200312948 0.2374639560909119 0  0.6875 0.9044521628094033 0  -0.9044521628094033 0.6875 0  0.8463389105089401 -0.8463389105089401 0  0.9044521628094033 0.6875 0  -0.8463389105089401 -0.8463389105089401 0  -0.767786457710924 0.8750783326923629 0  0.8677516869574191 -0.5506979707488757 0  -0.8677516869574192 -0.5506979707488756 0  -0.5050311643355169 -0.8555004540247985 0  -0.5701556468586396 -0.4567865287721606 0  0.6249950965330108 -0.8876837002882089 0  0.5701556468586395 -0.4567865287721607 0  0.3928657626645344 -0.6124864144470425 0  -0.592653592010189 0.4393117263502035 0  -0.4179614947106146 0.6138426574647371 0  -0.5292344651737774 0.8619935788915527 0  0.5926535920101891 0.4393117263502033 0  0.4248107255337702 0.6192605333809361 0  -0.4469834162493513 -0.6401729300299475 0  0.9006739696166555 0.9006739696166555 0  0.4798018989697899 0.9045243416864952 0  -0.9096531673941256 -0.1815147264791358 0  -0.9500000000000001 0 0  0.9500000000000001 0 0  0.6521320428699586 0.2281908711319545 0  -0.687773594604006 0.1793452688508528 0  0.1381474836556521 0.9550753510059677 0  -0.1375 0.9556922896465581 0  -0.1375 -0.9558400573365238 0  -0.6783448506972298 -0.9500094123501752 0  -0.9625000000000001 1.1 0  -1.1 0.9625000000000001 0  0.1452038542000676 -0.9554164009279873 0  0.875 -0.178378888693158 0  0.6793503582950227 -0.1556839898321528 0  0.1503116767474856 -0.6817816126977135 0  -0.1501232052114358 0.6818807752649215 0  0.224843964788616 0.6425671340716849 0  0.4403992229191585 -0.9418832717201049 0  -0.9255923214149538 0.1917223701372979 0  0.925592321414954 0.1917223701372979 0  -0.1654674019212394 -0.2633398615884157 0  0.2633398615884157 0.1654674019212394 0  0.2199174206378054 -0.2199174206378056 0  -0.6321077388721966 -0.2211840641163827 0  0.9496930499643419 -0.3840533576546167 0  -1.1 -0.4125 0  0.4892209988974057 -0.7667099924779079 0  -0.9622729494512566 -0.7061399025375782 0  1.1 -0.6875 0  -0.9625000000000001 -1.1 0  1.1 -0.9625000000000001 0  -0.07449011661556058 -0.6611180704222235 0  0.9201558410236723 0.5020324872420169 0  -0.7980259563196859 0.5347968030121897 0  -1.1 0.4125 0  -0.4125 1.1 0  -0.9404822608825543 0.89375 0  -0.9310348978548471 -0.392797243827761 0  -0.3451385467768902 -0.9355288124011237 0  0.7480397761709329 0.5143504158157237 0  -0.2824862267198052 -0.605330377080244 0  -0.9520915579684144 0.48125 0  0.5940338165669689 -0.295094959178099 0  -0.3171400979238754 0.07238515781857774 0  -0.07238515781857757 0.3171400979238754 0  -0.6875 1.1 0  0.7232332684232805 -0.4901806172551281 0  -0.7232332684232805 -0.4901806172551281 0  0.00338813553846288 0.655692289646558 0  -0.08845398977724174 -0.1280756351071957 0  0.11473577351878 -0.1051816471190254 0  0.1280756351071958 0.08845398977724203 0  -1.1 -0.9625000000000001 0  0.9625000000000001 -1.1 0  0.7921297170957761 0.7921297170957761 0  -0.3437500000000001 0.9650125732259328 0  0.5836124443421735 0.7936878997714175 0  0.65 0 0  -0.65 0 0  0.9664883964774059 -0.7562500000000001 0  -0.8124211746991734 -0.700257622122046 0  0.8170566656840113 -0.6956221311372082 0  0.963312045727999 0.3369953739214661 0  0.754216364371443 -0.9663173195149415 0  -0.9646845642933237 0.3341209191946947 0  0.4248945845939051 0.7671766797892229 0  0.1444746423966985 0.8107378728962151 0  1.1 -0.1375 0  -0.61875 0.9740926301799909 0  -0.4436314992969004 0.4648441946571232 0  0.446749005251518 0.4467490052515179 0  -0.6425762581319699 -0.809434358471983 0  -0.4237102526659775 -0.4914836457392125 0  0.3417556154465088 0.9649161802301053 0  1.1 0.9625000000000001 0  0.9625000000000001 1.1 0  -0.1346972861082186 -0.8140182440632158 0  0.004599123315319175 -0.9594136686545218 0  -0.7630020842896895 -0.1462286046077213 0  0.8937500000000002 -0.9780554058317621 0  -0.89375 -0.978055405831762 0  0.5307580899412138 -0.6335465795469118 0  -0.6735650381412928 0.3215315700647676 0  -0.2926124573178824 0.6815987298140569 0  0.2832002730267919 -0.9620860716296038 0  0.7808089105174282 0.1495688930967883 0  0.0003385874080656659 0.962016808709899 0  0.1396097490202794 -0.3341837278978841 0  -0.06174656588772961 -0.356871135866022 0  0.356871135866022 0.06174656588772962 0  0.3502422169756049 -0.1225550522669033 0  -0.3141898486624634 -0.1974185664662481 0  0.2104723163774097 0.2947389523832234 0  0.6875 -1.1 0  -0.4125 -1.1 0  1.1 -0.4125 0  1.1 0.1375 0  -1.1 0.1375 0  0.1375 -1.1 0  -0.6875 -1.1 0  -0.1375 -1.1 0  -0.1375 1.1 0  0.4125 -1.1 0  0.1375 1.1 0  -1.1 -0.1375 0  1.1 0.6875 0  -1.1 0.6875 0  0.6875 1.1 0  -1.1 -0.6875 0  1.1 0.4125 0  0.4125 1.1 0  -0.151176608331977 0.8191260725180923 0  0.1515495044630543 -0.8186697855688289 0  -0.526486564518479 0.7142024298560653 0  -0.5573848506159964 0.5762310871691408 0  0.720331182364698 -0.7909582169688955 0  0.9819791638121483 -0.622318971622832 0  -0.5246985929339253 -0.3296899772059645 0  0.3145426809485556 0.5426731239273453 0  -0.1846255388341355 0.04213957444465674 0  -0.0421395744446566 0.1846255388341357 0  0.4281875356850639 -0.4739192884886087 0  -0.4751434546088947 0.9830941382835867 0  -0.5218871269896868 0.327923416068668 0  0.5218871269896868 0.3279234160686678 0  -0.4014303854325054 0.7561410010683971 0  -0.4679926397922863 -0.9812422187131735 0  -0.3026615653521558 0.55036344815324 0  -0.5397081829995244 -0.7306642780966139 0  0.9911032692061623 -0.8937500000000002 0  -0.9763871746165429 -0.8739193086721466 0  0.254260682847422 -0.5864806602798783 0  -0.3643001290028616 -0.08087986416259899 0  -0.2060073154462889 0.3087931799966986 0  -0.3087931799966984 0.2060073154462891 0  0.05162583822629099 0.3675962661090195 0  -0.3863870983940469 -0.818198469145103 0  -0.7178509105469472 0.438636590802872 0  0.5248650937143274 0.544333731959085 0  0.5394102004945671 0.6744287826185811 0  0.9736442263428986 -0.2589551576123615 0  -0.6466016324836857 -0.3429461438153842 0  0.9882826862706525 -0.5001445473219641 0  -0.5692973074531109 0.1992057435931062 0  0.2679332586338489 -0.7057353379713655 0  0.97472163659182 0.7953658887002701 0  0.7953658887002701 0.97472163659182 0  -0.9858395265700997 0.7795544025957204 0  0.61875 1.002226081404702 0  -1.002226081404702 0.61875 0  1.002226081404702 0.61875 0  -0.7872795491246395 0.6557248622438615 0  0.7891733379062652 0.6344142792927272 0  -0.65214580987448 0.8022588499898194 0  -0.7374080037760796 0.9910247317792732 0  0.6858107639797646 0.3516178482725742 0  -0.8046606458159516 0.2243913597168291 0  -0.89375 1.00303902010377 0  0.04286108681466963 -0.6175947077223141 0  0.3212593971299798 0.7106672754906794 0  -0.6724373947869903 0.5480412062922982 0  0.6060749141796563 -0.7664549984213634 0  0.828899546032142 -0.4406615706566396 0  -0.9839844221761632 -0.5864783208180512 0  -0.8194224057691728 0.7691241460452193 0  0.6634571383747863 -0.387956122136344 0  0.6201350802686155 -0.56069693733135 0  -0.6285070347487245 -0.5568542402547564 0  0.4882373739369446 -0.3747481136125761 0  0.3811057632069687 -0.727045806314891 0  -0.8278834699170806 -0.4430880104260875 0  -0.875 0.08786676842428248 0  0.9801792185070523 -0.1176453979923067 0  -0.763389314798812 -0.5971032269598143 0  0.6706650544504121 0.1139123170284505 0  -0.2356231320439919 -0.8874537102254196 0  0.7577073913635143 -0.5985815095441068 0  0.8772193009776941 0.08814930188612236 0  -0.1918772948459984 -0.6831435764250359 0  0.6383102603939704 
[...]
<PointData  Vectors="f_136"> 
<DataArray  type="Float64"  Name="f_136"  NumberOfComponents="3" format="ascii">9.2123928841666397e-02 -2.1026685593292904e-02 0.0000000000000000e+00  6.3240015330130628e-02 1.5562047398830757e-17 0.0000000000000000e+00  1.5584772035647020e-02 3.5571225169944726e-03 0.0000000000000000e+00  -4.1521557197170399e-02 -1.9995728079522521e-02 0.0000000000000000e+00  -8.6860814069908060e-02 -6.9269187757413961e-02 0.0000000000000000e+00  -9.2768532232136172e-02 -1.1632806000228278e-01 0.0000000000000000e+00  -5.7090845256859223e-02 -1.1855036172426825e-01 0.0000000000000000e+00  -1.6249463599979672e-02 -7.1193551725397833e-02 0.0000000000000000e+00  1.6021770019195680e-17 -7.3688115739244464e-03 0.0000000000000000e+00  -1.0305101727257789e-02 4.5149600683183647e-02 0.0000000000000000e+00  -3.6368693121300796e-02 7.5520369431754220e-02 0.0000000000000000e+00  -6.6228390348882407e-02 8.3047774724742618e-02 0.0000000000000000e+00  -9.0014456431892501e-02 7.1784133619148774e-02 0.0000000000000000e+00  -1.0031123482410996e-01 4.8307344672533357e-02 0.0000000000000000e+00  -9.2123928841666494e-02 2.1026685593292946e-02 0.0000000000000000e+00  -6.3240015330130434e-02 6.1363790465548846e-18 0.0000000000000000e+00  -1.5584772035646949e-02 -3.5571225169944909e-03 0.0000000000000000e+00  4.1521557197170114e-02 1.9995728079522341e-02 0.0000000000000000e+00  8.6860814069907852e-02 6.9269187757413878e-02 0.0000000000000000e+00  9.2768532232135770e-02 1.1632806000228250e-01 0.0000000000000000e+00  5.7090845256859223e-02 1.1855036172426808e-01 0.0000000000000000e+00  1.6249463599979530e-02 7.1193551725398041e-02 0.0000000000000000e+00  5.0094477920202340e-17 7.3688115739248567e-03 0.0000000000000000e+00  1.0305101727257583e-02 -4.5149600683183203e-02 0.0000000000000000e+00  3.6368693121300741e-02 -7.5520369431754275e-02 0.0000000000000000e+00  6.6228390348882657e-02 -8.3047774724742507e-02 0.0000000000000000e+00  9.0014456431892015e-02 -7.1784133619148524e-02 0.0000000000000000e+00  1.0031123482411043e-01 -4.8307344672533441e-02 0.0000000000000000e+00  -1.3671817917213390e-15 8.9639272414533060e-16 0.0000000000000000e+00  -1.8051911229269988e-15 -2.0831556391294218e-17 0.0000000000000000e+00  1.0228883960683185e-15 -1.1569462676571265e-17 0.0000000000000000e+00  1.4276052604897258e-15 7.8756117222239325e-16 0.0000000000000000e+00  -1.4847144542624559e-15 -1.9232661518326561e-15 0.0000000000000000e+00  1.1551199190289763e-15 -1.8111985762058766e-15 0.0000000000000000e+00  -1.1354332537451489e-17 -2.3167999436645335e-15 0.0000000000000000e+00  -1.0516746625351580e-17 1.9634765949531400e-15 0.0000000000000000e+00  -1.8079559871041747e-15 -6.9446088667620911e-16 0.0000000000000000e+00  7.8416656243585181e-16 -9.2730798448098380e-16 0.0000000000000000e+00  2.4645495049823858e-15 -1.2575647825699688e-15 0.0000000000000000e+00  1.5459005761027869e-15 8.3521460995447126e-16 0.0000000000000000e+00  -1.2508500914167257e-15 6.1772117366227146e-16 0.0000000000000000e+00  -5.5204543804994925e-16 -1.8618959335224131e-15 0.0000000000000000e+00  -6.4663102385990719e-16 1.8368467445244668e-15 0.0000000000000000e+00  1.4900896413059793e-15 2.8084179241010425e-15 0.0000000000000000e+00  -1.2482488277540502e-04 -1.3490882961339533e-04 0.0000000000000000e+00  1.3029344196762105e-02 1.9080298063739939e-02 0.0000000000000000e+00  -1.3159054192911142e-02 -1.9153722402058020e-02 0.0000000000000000e+00  2.1352159138778106e-02 -1.5945908868342382e-02 0.0000000000000000e+00  -2.1397569353960276e-02 1.5872722539358647e-02 0.0000000000000000e+00  -1.3836243460575682e-02 1.1805498975459395e-02 0.0000000000000000e+00  5.0592012264103439e-02 -1.3686631373574031e-17 0.0000000000000000e+00  -5.0592012264103585e-02 4.1692784111947219e-18 0.0000000000000000e+00  1.3794912632816573e-02 -1.1948664677187342e-02 0.0000000000000000e+00  1.3863989519789937e-02 1.9966847591872693e-02 0.0000000000000000e+00  -4.3454811212805300e-16 -2.0705607192055123e-15 0.0000000000000000e+00  3.0106738717062827e-02 -1.2251778701146679e-02 0.0000000000000000e+00  -3.5335418457089408e-02 1.4932145044840053e-02 0.0000000000000000e+00  -1.4027890665907746e-03 -1.3352816257539013e-02 0.0000000000000000e+00  1.1462326295639250e-04 1.1291844088965377e-02 0.0000000000000000e+00  -1.7166349429114800e-02 -2.5414399346509683e-02 0.0000000000000000e+00  2.4222646920989679e-15 1.6404212889820481e-15 0.0000000000000000e+00  1.3150566761546235e-15 1.9359848460452662e-15 0.0000000000000000e+00  2.0868726248807462e-15 -1.3278628936934853e-15 0.0000000000000000e+00  1.2903231081647473e-15 -1.1678243967894808e-15 0.0000000000000000e+00  -2.4564421242758250e-15 1.6384071405422366e-15 0.0000000000000000e+00  -1.6005945378146875e-15 1.9979632803720761e-15 0.0000000000000000e+00  -1.3347718574283423e-15 -1.2827328022653282e-15 0.0000000000000000e+00  -1.9639850613747233e-15 -1.3128417096124831e-15 0.0000000000000000e+00  1.1484400544337043e-02 5.0398815220805094e-03 0.0000000000000000e+00  -1.1378423725639622e-02 -4.3065514243329382e-03 0.0000000000000000e+00  2.2433787943540412e-15 6.3257538517739496e-16 0.0000000000000000e+00  2.4293102966919275e-15 -4.7625673180084921e-16 0.0000000000000000e+00  -1.7051300734084291e-15 4.8111585561041443e-16 0.0000000000000000e+00  -2.3793543116837440e-16 6.5775192570815426e-16 0.0000000000000000e+00  4.1321244622897332e-16 -1.2476487820649052e-15 0.0000000000000000e+00  2.9326230643305501e-16 1.7824048433565399e-15 0.0000000000000000e+00  -1.9007528784619656e-15 -8.7119688133630435e-16 0.0000000000000000e+00  -2.4431427551070337e-02 -3.9755205378230529e-04 0.0000000000000000e+00  -7.2003500100860612e-04 -2.4652720953658315e-02 0.0000000000000000e+00  -2.3614305272079420e-02 2.2146401300420407e-02 0.0000000000000000e+00  3.3588558381779481e-02 -2.4439775040822388e-02 0.0000000000000000e+00  2.3787220215283483e-02 2.3596150163776856e-02 0.0000000000000000e+00  5.6605310488477166e-03 8.3486909915499365e-03 0.0000000000000000e+00  9.8459181730020783e-03 -6.2543598530198389e-03 0.0000000000000000e+00  -7.2242708194400693e-03 5.1466675787209207e-03 0.0000000000000000e+00  4.1384413963290899e-03 7.0937359873853283e-03 0.0000000000000000e+00  -4.1057402598533759e-03 -6.2841416056003303e-03 0.0000000000000000e+00  8.0252702169327714e-03 -6.0333945115993897e-03 0.0000000000000000e+00  -1.6515831026141761e-02 9.3248773742413606e-03 0.0000000000000000e+00  -5.0120747136259457e-03 -9.9542432646966272e-03 0.0000000000000000e+00  -1.0690093180333184e-02 -1.5413589117557887e-02 0.0000000000000000e+00  -2.6731065805530096e-02 -3.4069786072319773e-02 0.0000000000000000e+00  -9.8727664668723392e-03 7.9887303847240125e-03 0.0000000000000000e+00  -4.4464890307861174e-02 3.1238038397539233e-02 0.0000000000000000e+00  -3.0900244100207228e-02 3.1931210206545831e-02 0.0000000000000000e+00  4.4691250513321172e-02 -2.9607667958567473e-02 0.0000000000000000e+00  3.1040640552857768e-02 -3.1157068041130300e-02 0.0000000000000000e+00  1.2183259972757501e-02 -1.0454078811865908e-02 0.0000000000000000e+00  2.3463862173699272e-02 3.0991775830023705e-02 0.0000000000000000e+00  2.8757864814408042e-02 4.1130252657947494e-02 0.0000000000000000e+00  -2.6171875985833072e-02 -3.7113117984890982e-02 0.0000000000000000e+00  2.4675733551420480e-03 3.8385065428910982e-03 0.0000000000000000e+00  8.6100955751033728e-03 1.2463142849055593e-02 0.0000000000000000e+00  1.3571099186479633e-02 -3.9911693173108791e-03 0.0000000000000000e+00  3.0039007281810807e-02 2.1620672709646413e-17 0.0000000000000000e+00  -3.0039007281810914e-02 4.9958029580483326e-17 0.0000000000000000e+00  -3.0235865867165820e-03 1.3953802951535503e-02 0.0000000000000000e+00  5.4006513392523513e-02 -1.4214653703204108e-02 0.0000000000000000e+00  6.5067278367006171e-03 6.7283120035161615e-03 0.0000000000000000e+00  6.3533303851965343e-03 -2.0549604214790095e-03 0.0000000000000000e+00  -6.5732346785672864e-03 -6.7898194784429605e-03 0.0000000000000000e+00  -4.4573752268780619e-03 -6.5242872036945562e-03 0.0000000000000000e+00  -9.7785660378143068e-16 2.1708352391003626e-15 0.0000000000000000e+00  -9.8444704573528285e-16 1.1358475196610667e-15 0.0000000000000000e+00  -6.4650813874801748e-03 2.1888042296624249e-03 0.0000000000000000e+00  -3.0818665090418942e-02 5.8698754090629451e-03 0.0000000000000000e+00  -5.6147277198322916e-02 1.3264951751634483e-02 0.0000000000000000e+00  -1.6902099733525109e-02 1.4785683566700439e-02 0.0000000000000000e+00  1.6582667453282757e-02 -1.4980376118376380e-02 0.0000000000000000e+00  2.5283525609917305e-02 4.3236387506230448e-02 0.0000000000000000e+00  -8.0884737926922717e-03 6.8581679775150516e-03 0.0000000000000000e+00  2.3769350997771835e-02 -4.5891660484035281e-03 0.0000000000000000e+00  -1.2065989178558653e-02 3.8068157508139950e-03 0.0000000000000000e+00  -3.2031392218041715e-02 -4.3205389612475831e-02 0.0000000000000000e+00  1.9063771906309989e-02 3.4247550397969201e-02 0.0000000000000000e+00  -4.3154853100908871e-02 3.3623853627769561e-02 0.0000000000000000e+00  1.9534532717413403e-03 -1.3925677754655249e-02 0.0000000000000000e+00  -1.5039296558916200e-02 5.9345441838247045e-03 0.0000000000000000e+00  -2.4658198603899670e-15 -7.3819690691481786e-16 0.0000000000000000e+00  -1.8434750836140747e-02 1.6363077600740659e-02 0.0000000000000000e+00  -2.7696251228740017e-03 -4.7435579549454984e-03 0.0000000000000000e+00  1.9674931514581599e-15 -1.6329211047376542e-15 0.0000000000000000e+00  -7.7252438746683922e-16 -2.1857373320501489e-15 0.0000000000000000e+00  1.7886677893456599e-15 -6.0991290331429186e-16 0.0000000000000000e+00  -1.5937866857757260e-02 -2.1720630405595090e-02 0.0000000000000000e+00  2.6951569529809209e-03 7.4932158578018097e-03 0.0000000000000000e+00  2.1905546652558609e-02 -1.2875675879488169e-02 0.0000000000000000e+00  -1.7705672286471830e-15 3.9115946119529834e-16 0.0000000000000000e+00  -8.2266250776265300e-16 1.3940191290009669e-15 0.0000000000000000e+00  3.7183159716605583e-03 -2.6206686112558203e-03 0.0000000000000000e+00  1.5876975249758967e-04 -6.4937151970278443e-03 0.0000000000000000e+00  -7.9747865863668346e-03 -1.1206717756772708e-02 0.0000000000000000e+00  9.8756351206352178e-03 1.6963623539766715e-02 0.0000000000000000e+00  -3.2169167211868979e-02 -5.3208938151275732e-02 0.0000000000000000e+00  1.2255508977397878e-02 -5.9511515075048628e-03 0.0000000000000000e+00  -5.9839937660874039e-02 2.9355334085383177e-02 0.0000000000000000e+00  4.1431690036592903e-02 -2.5385018697733849e-02 0.0000000000000000e+00  2.6507223976437840e-02 -1.2165902147982513e-02 0.0000000000000000e+00  -8.0064826044584093e-16 2.3144622971016068e-15 0.0000000000000000e+00  -3.0089377256002848e-02 1.7883054213886741e-02 0.0000000000000000e+00  -1.1251911252583204e-02 -1.8766169075371132e-02 0.0000000000000000e+00  1.3404373917230313e-02 8.8930903283981778e-03 0.0000000000000000e+00  -1.2097387509296407e-02 -1.5809149893374622e-02 0.0000000000000000e+00  -2.0062861880244139e-02 1.2868090776210532e-02 0.0000000000000000e+00  5.2991161263009727e-03 1.7508185358518068e-02 0.0000000000000000e+00  -1.3440472324460809e-15 -1.0611847084903778e-15 0.0000000000000000e+00  1.4735168476679697e-15 -9.6393935995218315e-16 0.0000000000000000e+00  6.0525814145384726e-03 9.2719963478526870e-03 0.0000000000000000e+00  6.7372729167708085e-03 -5.4694568220061456e-03 0.0000000000000000e+00  1.1648120588974150e-02 1.6898916199092673e-02 0.0000000000000000e+00  -6.1659014946877672e-02 4.1341807381265481e-17 0.0000000000000000e+00  6.1659014946876485e-02 -2.5502763545395005e-17 0.0000000000000000e+00  -5.4613341145971521e-03 3.5616530835507611e-03 0.0000000000000000e+00  -6.7923888940181164e-03 -1.0721370334879214e-02 0.0000000000000000e+00  -1.3521118162932914e-02 9.0556389364519780e-03 0.0000000000000000e+00  -2.2306377733877238e-03 4.7527043336075079e-03 0.0000000000000000e+00  -4.8081962760660301e-03 3.6758790577490256e-03 0.0000000000000000e+00  1.4759422020836604e-02 -5.0182539574678475e-03 0.0000000000000000e+00  1.6868030694156808e-02 2.4644824812084277e-02 0.0000000000000000e+00  1.2985163739006329e-02 1.5897395220043707e-02 0.0000000000000000e+00  1.7778272382466238e-15 -2.0458345694923724e-16 0.0000000000000000e+00  5.7017565727806776e-03 -4.6647079821756157e-03 0.0000000000000000e+00  5.0520127425597007e-02 -4.6145344708506064e-02 0.0000000000000000e+00  4.7721352466863175e-02 5.6398247522345207e-02 0.0000000000000000e+00  -9.5659653236752733e-03 -1.3912260611659240e-02 0.0000000000000000e+00  -4.5257452750750569e-02 -5.7550327464991606e-02 0.0000000000000000e+00  6.4331824839201964e-03 8.9933638049478973e-03 0.0000000000000000e+00  2.6428161948377145e-15 1.8022711440154734e-15 0.0000000000000000e+00  1.3433200518508979e-15 1.8771993274291934e-15 0.0000000000000000e+00  -1.2943703355868882e-02 -1.5322307804257159e-02 0.0000000000000000e+00  -6.0550436770747604e-03 -2.2372555259117426e-03 0.0000000000000000e+00  2.2970061239337203e-02 -6.0197836270019147e-03 0.0000000000000000e+00  -2.7588136781699539e-03 2.0020813758100391e-03 0.0000000000000000e+00  -1.6118724731561667e-03 -2.4532265593576216e-03 0.0000000000000000e+00  -2.8155251404622335e-02 2.4019848952179297e-02 0.0000000000000000e+00  4.7248276769733956e-02 -2.1750988768617672e-02 0.0000000000000000e+00  2.2307084851014302e-02 -2.4446986821087834e-02 0.0000000000000000e+00  -6.7417451460508957e-03 4.8954691311677238e-03 0.0000000000000000e+00  -2.2483387045670492e-02 5.8759033543810809e-03 0.0000000000000000e+00  5.8637595828136858e-03 2.2769418163692801e-03 0.0000000000000000e+00  -3.2353756035143337e-02 3.1976118061071125e-02 0.0000000000000000e+00  -2.4809117013361071e-02 -3.0452366396869560e-02 0.0000000000000000e+00  -1.5004848838241150e-02 1.9228267788416940e-02 0.0000000000000000e+00  -5.7816155051434608e-02 3.0331807711499660e-02 0.0000000000000000e+00  -3.0933155963923396e-02 -3.9089202918536091e-02 0.0000000000000000e+00  4.2868521782574109e-02 5.8578001954125172e-02 0.0000000000000000e+00  1.3473224861272405e-15 -1.0668047993231065e-15 0.0000000000000000e+00  -7.9239624064670541e-16 -1.6636615702419582e-15 0.0000000000000000e+00  2.7114892923889331e-15 -9.9795206919015026e-16 0.0000000000000000e+00  1.8588077138933078e-15 3.0362994529731322e-16 0.0000000000000000e+00  -1.9302965903662035e-15 2.6271455129865961e-16 0.0000000000000000e+00  2.3402783263717515e-16 -1.5326255334242088e-15 0.0000000000000000e+00  -1.5159731040833623e-15 -2.3366681418003700e-15 0.0000000000000000e+00  -2.0442691091184973e-16 -1.9201635659655774e-15 0.0000000000000000e+00  -3.2050296791669259e-16 1.8513695716299503e-15 0.0000000000000000e+00  8.4301673539929273e-16 -2.2865872216650724e-15 0.0000000000000000e+00  2.5863039138723818e-16 1.1045066231903587e-15 0.0000000000000000e+00  -1.3530781539237924e-15 -2.6283890636130344e-16 0.0000000000000000e+00  1.9627694730291516e-15 6.6765260197737505e-16 0.0000000000000000e+00  -1.6135229746362224e-15 9.3737512992823037e-16 0.0000000000000000e+00  1.0724065262144652e-15 2.2101190933962622e-15 0.0000000000000000e+00  -2.1851165367667228e-15 -1.3613122239884725e-15 0.0000000000000000e+00  1.5338720146604307e-15 7.2040948955493878e-16 0.0000000000000000e+00  6.4186982200741735e-16 2.3364770524670416e-15 0.0000000000000000e+00  1.2088530640279307e-02 -6.3569845416922817e-03 0.0000000000000000e+00  -1.2205347306884128e-02 6.3634063141005072e-03 0.0000000000000000e+00  2.1686181173009939e-02 -1.8887236669125725e-02 0.0000000000000000e+00  3.2570689257027968e-02 -2.6185578450336103e-02 0.0000000000000000e+00  -1.2746355027114289e-02 9.5593329521705614e-03 0.0000000000000000e+00  -7.1185477478867623e-03 4.1393263069373267e-03 0.0000000000000000e+00  -3.4482444771505409e-02 -3.5282931199383090e-02 0.0000000000000000e+00  4.2523424546164028e-02 6.6171266290781613e-02 0.0000000000000000e+00  1.8281821559225246e-02 -1.9075818593943954e-02 0.0000000000000000e+00  2.1507883349890372e-02 -3.0459992077033322e-03 0.0000000000000000e+00  -4.9572856344951781e-02 4.6970724080806277e-02 0.0000000000000000e+00  5.8593232941454923e-03 -4.9820205778541718e-03 0.0000000000000000e+00  6.6310525570896658e-02 -4.0239966008452858e-02 0.0000000000000000e+00  3.3780119469494878e-02 3.4723746573291921e-02 0.0000000000000000e+00  1.9078098528203358e-02 -1.8143571314665475e-02 0.0000000000000000e+00  -5.2437244725398501e-03 -7.5194792326770104e-03 0.0000000000000000e+00  3.4325349569144147e-02 -4.5047541683896457e-02 0.0000000000000000e+00  -1.6113143312662628e-02 -2.3015114152011903e-02 0.0000000000000000e+00  -2.5662832741147790e-03 1.7746909693325049e-03 0.0000000000000000e+00  -1.6793196283830304e-03 -2.6386299605762006e-03 0.0000000000000000e+00  -2.7387074728724124e-02 3.6985685004568510e-02 0.0000000000000000e+00  9.3085370858516907e-03 -1.9352760707521587e-02 0.0000000000000000e+00  4.3752320922548583e-02 -4.3835701189398744e-02 0.0000000000000000e+00  5.9315572013776928e-02 -4.1779099580761730e-02 0.0000000000000000e+00  2.3851507754668783e-02 2.8119459019116472e-02 0.0000000000000000e+00  -1.4277620487198337e-02 -2.0749791451702016e-02 0.0000000000000000e+00  3.3955286005041489e-02 -1.8855921701448463e-02 0.0000000000000000e+00  2.7805609818674949e-02 3.6899277575207071e-02 0.0000000000000000e+00  1.8943684314660730e-02 2.6845272531977809e-02 0.0000000000000000e+00  -1.5578649363173299e-02 4.0580081621665997e-03 0.0000000000000000e+00  -1.2333897083739234e-02 -2.1706016320822318e-02 0.0000000000000000e+00  -8.9609918600153087e-03 4.4017488585174512e-03 0.0000000000000000e+00  7.1401773907059707e-02 -2.5633769711468815e-02 0.0000000000000000e+00  -2.0072240790363498e-02 2.0735820931014653e-02 0.0000000000000000e+00  2.1268846341249278e-03 3.4873743184048647e-03 0.0000000000000000e+00  2.5371910615348977e-03 3.8148786951512749e-03 0.0000000000000000e+00  4.2872205456372658e-03 -2.8285192756938378e-03 0.0000000000000000e+00  3.3240889947271902e-03 4.8562790878634967e-03 0.0000000000000000e+00  5.9949134632578420e-03 -3.4260650947015112e-03 0.0000000000000000e+00  1.8389376235173197e-03 3.7489062300988690e-03 0.0000000000000000e+00  1.6688811656658527e-02 -1.1121058977662654e-02 0.0000000000000000e+00  8.1002290993769498e-03 1.3110979720441616e-02 0.0000000000000000e+00  1.3804011461893218e-02 -1.0963382225912947e-02 0.0000000000000000e+00  4.0343655478250343e-03 -3.1321452130533586e-03 0.0000000000000000e+00  8.6300829724495660e-03 1.9173887375809086e-02 0.0000000000000000e+00  3.7279199125951019e-02 -9.9499643429155869e-03 0.0000000000000000e+00  2.2141193171953603e-03 -1.6219504792208930e-03 0.0000000000000000e+00  -1.3068308007078699e-02 1.7134947898010684e-03 0.0000000000000000e+00  2.1845296459583601e-02 3.3317196066236211e-02 0.0000000000000000e+00  2.9269146865096896e-02 -1.9853881122502949e-02 0.0000000000000000e+00  -1.6844596263778790e-02 1.3664659280041146e-02 0.0000000000000000e+00  -2.4260480733599800e-02 1.1924180198389440e-02 0.0000000000000000e+00  -2.1436424082720046e-03 -4.6079648127978438e-03 0.0000000000000000e+00  1.0649183044907154e-02 -7.4776205399720306e-03 0.0000000000000000e+00  -4.3126578142098526e-02 2.3478642691670434e-02 0.0000000000000000e+00  -3.1252772510962784e-02 2.2688437422690787e-02 0.0000000000000000e+00  -1.8376369253899665e-02 -2.5767184115047501e-02 0.0000000000000000e+00  -6.3086861101235070e-02 4.5505062821427647e-02 0.0000000000000000e+00  -2.1070336353847849e-02 2.0580870006186299e-02 0.0000000000000000e+00  -4.1677048664768342e-03 -1.1861937193995873e-02 0.0000000000000000e+00  3.5445044017994067e-02 -3.0991353300740239e-03 0.0000000000000000e+00  -1.8952363564125191e-02 1.9785118899101548e-03 0.0000000000000000e+00  -9.4720780087488819e-03 -1.5167781275870287e-02 0.0000000000000000e+00  -2.8734414416787209e-02 5.6702634895727990e-03 0.0000000000000000e+00  -1.0317710102423043e-02 -1.3679658646077465e-02 0.0000000000000000e+00  -2.1123806505897853e-02 1.3730216632055958e-02 0.0000000000000000e+00  -2.716340