<?xml version="1.0"?>
<VTKFile type="UnstructuredGrid"  version="0.1"  >
<UnstructuredGrid>
<Piece  NumberOfPoints="391" NumberOfCells="663">
<Points>
<DataArray  type="Float64"  NumberOfComponents="3"  format="ascii">0.75 0.25 0  0 0 0  2 -0.25 0  4 -0.25 0  4 0.25 0  2 0.25 0  1 1 0  4 0.75 0  3 0.75 0  0.5 4.25 0  0.5 2.25 0  1 2.25 0  1 4.25 0  0 1.25 0  0 4.25 0  0.7844645405527362 -0.09805806756909202 0  0.6519419324309079 1.034464540552736 0  2 0.875 0  0 2.75 0  3 0.25 0  0.5 3.25 0  0 2 0  3 -0.25 0  0 3.5 0  1 3.25 0  0.5 2.75 0  1 2.75 0  0.575970966215454 1.642232270276368 0  1 1.625 0  1.392232270276368 -0.174029033784546 0  1.375 0.25 0  0 0.625 0  1 3.75 0  0.5 3.75 0  2.5 -0.25 0  2.5 0.25 0  3.5 -0.25 0  3.5 0.25 0  3.5 0.75 0  2.5 0.8125 0  1.5 0.9375 0  1.6875 0.25 0  1.0625 0.25 0  0.875 0.625 0  0.700970966215454 0.6422322702763681 0  0 0.3125 0  0.375 0.125 0  0.3922322702763681 -0.04902903378454601 0  0.3464664973773267 0.7970996614213204 0  2.25 0.53125 0  0 3.125 0  0 2.375 0  0 1.625 0  0 3.875 0  0.537985483107727 1.946116135138184 0  1 1.9375 0  1.715073529411765 0.6268382352941176 0  3.25 0.25 0  3.25 -0.25 0  2.25 0.25 0  2.25 -0.25 0  2.75 0.25 0  2.75 -0.25 0  0.5 3.5 0  1 3.5 0  0.5 4 0  1 4 0  0.75 4.25 0  1 3 0  0.5 3 0  1 2.5 0  0.5 2.5 0  4 0 0  3.75 0.25 0  3.75 -0.25 0  1.25 0.96875 0  1.2451171875 0.59765625 0  0.293853011932077 1.4375 0  1 1.3125 0  0.6139564493231809 1.338348405414552 0  0.4116857159777551 0.4632129806755783 0  0.2928501320423879 1.115056149148878 0  0.284201940513483 1.760077167188763 0  0 0.9375 0  2.75 0.78125 0  1.088348405414552 -0.136043550676819 0  1.696116135138184 -0.212014516892273 0  2.591796875 0.53125 0  0.75 3.625 0  0.75 2.375 0  0.75 2.875 0  0.25 3.625 0  2.625 0 0  2.869887408088236 0.5025562959558824 0  3.125 0 0  3.150678214896726 0.5128391074483631 0  3.625 0 0  0.2785016588824192 2.067996682235162 0  0.21875 3.3125 0  0.21875 2.5625 0  0.25 2.875 0  2.125 0 0  0.25 4.25 0  3.625 0.5 0  1.84375 0.02182631533805432 0  0.7718263153380543 2.09375 0  1.986741274157778 0.6025731993874749 0  0.7939852294895662 1.78125 0  1.53125 0.04398522948956621 0  0.2625 3.8875 0  1.487674840542341 0.4901847565263522 0  1.75 0.90625 0  2.25 0.84375 0  3.25 0.75 0  0.75 4 0  0.75 3.354166666666667 0  0.71875 2.625 0  2.875 0.03125 0  2.375 0.03125 0  3.375 0.03125 0  4 0.5 0  3.75 0.75 0  0.2416684284745848 2.314407666779651 0  0.783116615667627 1.513809451332749 0  1.21875 0.06657492251677036 0  0.7135416666666666 3.114583333333333 0  3.388696598780641 0.5380982993903208 0  0.9375 0.8125 0  0.5625 0.1875 0  0.5883484054145521 -0.07354355067681902 0  1.834292433496893 0.4286869955403995 0  0 4.0625 0  1.508268243309771 0.7134447566805204 0  0.8397364341934612 1.15625 0  0.90625 0.08973643419346128 0  0.1762287579962529 0.46875 0  0.2947198275862069 3.098060344827586 0  1.050226080907534 0.4782380404537671 0  0.1875 0.0625 0  0 0.15625 0  0.196116135138184 -0.02451451689227301 0  0.2235726073555983 0.2667821779332051 0  0.725485483107727 0.446116135138184 0  0.8125 0.4375 0  1.21875 0.25 0  0 2.1875 0  0.6764564493231809 0.8383484054145521 0  0.4192012547977333 1.2758866510268 0  0.4944620909057268 0.6526950569812381 0  0.4992042149041173 0.9157821009870283 0  0 0.78125 0  0.194937005463869 0.6673564002429151 0  1.86255880264684 0.7451530740852181 0  2.357421875 0.6875 0  2.081166387241662 0.429588211340745 0  2.4208984375 0.4314236111111111 0  1.066781649073149 0.6699599996672357 0  0 2.5625 0  0 2.9375 0  0 3.3125 0  0 3.6875 0  0 1.8125 0  0 1.4375 0  3.8125 0.4375 0  3.8125 -0.0625 0  0.6875 3.8125 0  0.1700218302012254 0.859375 0  0.1690472196096196 1.911957914763972 0  1.21668432001436 0.78360936544389 0  1.313806319838196 0.4252282586228372 0  0.4784532254937536 1.100111179048576 0  0.3209821428571429 4.070982142857143 0  0.8203557082857347 1.336443668828191 0  0.8198947473657886 0.9558684175447372 0  0.7058684175447372 0.06989474736578868 0  2.10922165655377 0.733148252430158 0  3.859375 0.109375 0  0.859375 3.859375 0  1 4.125 0  0.875 4.25 0  0.5 4.125 0  0.625 4.25 0  3.859375 0.609375 0  1.655097146789825 0.4262580653019079 0  0.3899606708444321 1.601808367909216 0  0.188094281601128 1.595768799279547 0  0.1897730363172224 1.276600229362483 0  0.5949637077693175 1.49029033784546 0  0.1449053692805861 1.028784568397856 0  0.3914391824525068 0.2943129806383731 0  0.3236607142857143 2.709821428571428 0  0.3236607142857143 3.459821428571428 0  0.1400216896236526 3.03125 0  1.53125 0.25 0  0.1360119047619048 3.78125 0  0.1627182813733228 3.487063437253354 0  0.1627182813733228 2.737063437253354 0  2.720703257667097 0.418640211343992 0  0.3424301829456695 0.9599178797904677 0  1.375 0.953125 0  0.1593355272190568 4.110469297041258 0  3.281711152186982 0.4121684663171481 0  0.5 2.375 0  0.3410285945110505 2.448691175299727 0  1 3.125 0  0.8543087121212121 3.1875 0  0.5569782246615904 1.794174202707276 0  0.3652817565949378 1.915590656671834 0  0.5638273274834154 0.3673300457659344 0  0.6676801583862377 2.227139683227525 0  1.848058067569092 -0.2310072584461365 0  1.94122119384032 -0.1029663487768788 0  1.063574437333265 0.09265221344022306 0  1.370508994627147 -0.006847336588330449 0  1.691189739895822 0.0849409808883908 0  0.7102041511586388 1.932344835250979 0  0.90625 0.25 0  0 0.46875 0  1.84375 0.25 0  1 1.15625 0  1 1.46875 0  1 1.78125 0  1 2.09375 0  0 1.09375 0  1.24029033784546 -0.1550362922306825 0  0.5874140870339478 0.5241764082593681 0  0.5189927415538635 2.098058067569092 0  1.625 0.921875 0  3.434929322219013 0.3904102382632201 0  0.8461896960869875 3.030838823550802 0  1.653156168984253 0.7692030401370287 0  3.262867647058823 -0.08731617647058823 0  3.125 -0.25 0  0.8373161764705882 2.512867647058823 0  1 2.375 0  0.8692187841679423 2.66535148562213 0  2.762867647058823 -0.08731617647058823 0  2.625 -0.25 0  2.91535148562213 -0.1192187841679423 0  2.262867647058823 -0.08731617647058823 0  2.125 -0.25 0  2.41535148562213 -0.1192187841679423 0  3.41535148562213 -0.1192187841679423 0  1.544174202707276 -0.1930217753384095 0  0.6329491908770444 1.186406472983644 0  0.9364064729836441 -0.1170508091229555 0  1.125 0.984375 0  0.4504336144101285 1.42952773224714 0  1.644206836021766 -0.06435706276321013 0  2.740664765945612 0.6121009952805112 0  2.625 0.796875 0  0.124662354175549 2.09375 0  3.125 0.25 0  3.01361133488061 0.4168063371840494 0  2.875 0.25 0  1.373795061992237 0.7955646549967906 0  0.3420767846962419 0.6064437720353588 0  2.5625 0.3852064344618056 0  2.508037860576923 0.6595177283653846 0  0.1469265059660385 1.41842861420922 0  2.875 0.765625 0  0.1699209010469667 3.174524454330363 0  0.7999248195469919 0.7541917268176694 0  0.5041917268176693 0.04992481954699185 0  0.8544829369904072 1.969727084723336 0  0.6614583333333334 3.489583333333333 0  0.5 3.625 0  1 3.375 0  0.868923611111111 3.4375 0  0.1332176882968829 1.738129301927728 0  0.5 3.375 0  0.109375 2.46875 0  0.3498212186520376 3.238257983934169 0  1.39620661760173 0.6112015078027588 0  0.3515544365587217 2.204874914095091 0  0.1274818974577599 3.960380153387042 0  1.169611445660898 0.3900530577151583 0  1.986051070991002 0.03251070901556422 0  0.8389661381605011 2.240432276321002 0  0.5 3.125 0  2.28246200534612 0.390625 0  3.007334260338529 0.5882132356141939 0  3.125 0.75 0  1.078366076880243 0.8103651640050832 0  3.0625 0.125 0  0.625 2.4375 0  0.8541666666666666 4.104166666666667 0  0.6875 4.125 0  3.6875 0.375 0  0.3591887728535061 2.969122454292988 0  3.6875 -0.125 0  3.520548512937292 0.6040242564686458 0  3.239583333333333 0.09895833333333334 0  3.510416666666667 0.09895833333333333 0  3.625 0.25 0  2.5625 -0.125 0  2.510416666666667 0.09895833333333333 0  2.625 0.25 0  2.239583333333333 0.09895833333333334 0  2.125 0.25 0  2.739583333333333 0.09895833333333334 0  3.0625 -0.125 0  0.6510416666666666 2.760416666666667 0  0.5 2.875 0  0.3426829268292683 3.752134146341464 0  0.5 3.875 0  0.8714095068886598 2.80531901377732 0  0.8825550258945386 3.577610051789077 0  0.8620783455301706 3.717761444253076 0  0.6472120098039215 2.981924019607843 0  3.716032608695652 0.1107336956521739 0  3.716032608695652 0.6107336956521739 0  0.2897475706393562 0.3888273525164954 0  1.786575790561101 -0.1056013740095049 0  0.4252485344603035 1.739858069965885 0  0.5 2.625 0  0.1308946075780465 2.231795972322868 0  1.850416351396303 0.6092079899891796 0  2.125915028793208 0.5947584569158341 0  3.551580274702736 -0.1148348626486319 0  0.6206597222222222 3.3125 0  0.984375 0.3602477313637387 0  0.7242566657366407 1.6501426033772 0  0.8612952327118942 1.628434546378823 0  1.606452791588792 0.5500604232027796 0  1.453125 0.3598714462304637 0  0.625 3.6875 0  0.625 3.9375 0  4 -0.125 0  3.875 -0.25 0  4 0.375 0  3.875 0.25 0  3.152777626956278 0.3799601266325013 0  2.379716795646156 0.5571209725245179 0  0.1077014526045516 1.171875 0  0.5468843282025183 0.7833364103485649 0  2.88346274652106 0.6338764991013285 0  0.3773660714285715 3.951949404761905 0  0.3495104379338289 2.580398005237598 0  1.921875 0.1458186769779903 0  2.375 0.25 0  1.418557818694741 0.1207754553364332 0  1.481445595119689 -0.07758653553853971 0  0.1144799602653395 2.864169841061358 0  0.1144799602653395 3.614169841061358 0  2.080969168287872 0.125 0  3.261146087782943 0.6059538971878488 0  3.375 0.75 0  3.625 0.75 0  0.375 4.25 0  3.56001833055729 0.3630975041640645 0  0.6446247714683205 2.049847905827801 0  2.843059981786046 0.3756833222572615 0  2.227226163353452 0.6771809110312732 0  2.996323529411764 -0.01378676470588235 0  3.375 0.25 0  2.9375 0.140625 0  2.125 0.859375 0  2.375 0.828125 0  1.875 0.890625 0  0.887587945928253 3.310981699982765 0  1 3.625 0  1 2.875 0  0.375 2.831729609073359 0  3.625 -0.25 0  0.375 3.581729609073359 0  3.375 -0.25 0  2.375 -0.25 0  2.074300107642695 -0.125 0  2.875 -0.25 0  0.875 2.360947925134572 0  1 2.625 0  0.125 4.25 0  1 3.875 0  4 0.125 0  4 0.625 0  3.875 0.75 0  0.12
[...]
<PointData  Vectors="f_149"> 
<DataArray  type="Float64"  Name="f_149"  NumberOfComponents="3" format="ascii">1.4398784006076368e-15 6.2935604836036420e-16 0.0000000000000000e+00  5.7803549835064370e-17 1.8001466308295392e-17 0.0000000000000000e+00  3.5670018988373565e-15 -2.0390681766741825e-16 0.0000000000000000e+00  4.8155061024994221e-15 -2.8863807941811903e-16 0.0000000000000000e+00  5.5293373598549377e-15 3.5702888109224691e-16 0.0000000000000000e+00  2.1917300750418576e-15 4.2725882432638973e-16 0.0000000000000000e+00  2.3477010683927536e-15 1.8991863418204076e-15 0.0000000000000000e+00  4.0133995714222146e-15 1.0267877534828239e-15 0.0000000000000000e+00  5.1152349473069046e-15 1.7100160242684690e-15 0.0000000000000000e+00  6.7792206845847793e-16 6.8720143934850702e-15 0.0000000000000000e+00  1.0094592145537372e-15 4.1096345119038050e-15 0.0000000000000000e+00  1.5778916152148405e-15 4.3920758557413850e-15 0.0000000000000000e+00  1.0859833244615736e-15 6.4929740459702156e-15 0.0000000000000000e+00  3.3548072172220528e-17 8.4856757360031290e-16 0.0000000000000000e+00  2.8517241519486931e-17 5.2034935218619348e-15 0.0000000000000000e+00  3.5685757980889483e-16 -1.2051255846730313e-16 0.0000000000000000e+00  9.9656148788268815e-16 1.9672205086343188e-15 0.0000000000000000e+00  3.6285077310861351e-15 1.1595850735601842e-15 0.0000000000000000e+00  7.3701972567462630e-17 4.0749402622318025e-15 0.0000000000000000e+00  3.3246513233057956e-15 5.2815093994579346e-16 0.0000000000000000e+00  6.1558858906471346e-16 4.5045916740978750e-15 0.0000000000000000e+00  2.5449745028575592e-17 3.4286995870440825e-15 0.0000000000000000e+00  5.8809801357820407e-15 -3.4435680193126360e-16 0.0000000000000000e+00  9.4683506531301182e-17 8.1330957099463499e-15 0.0000000000000000e+00  1.6859052413839702e-15 4.9819425837707040e-15 0.0000000000000000e+00  5.8738653642938608e-16 5.5013569709136749e-15 0.0000000000000000e+00  1.6934895784013670e-15 3.6753490895321891e-15 0.0000000000000000e+00  1.0513465258168428e-15 2.1862623950594546e-15 0.0000000000000000e+00  2.2766280418585370e-15 1.8331061836845376e-15 0.0000000000000000e+00  2.3504192433412359e-15 -1.4831122469376981e-16 0.0000000000000000e+00  1.6803627399867636e-15 3.9709223450050836e-16 0.0000000000000000e+00  -5.6685907774094763e-17 9.3564535150821940e-16 0.0000000000000000e+00  1.9849415024126849e-15 4.0019105292358646e-15 0.0000000000000000e+00  6.9081343034647831e-16 5.6586887390824363e-15 0.0000000000000000e+00  2.3709756722110849e-15 -1.1146479503099236e-16 0.0000000000000000e+00  4.5515113469833283e-15 3.4064113278563622e-16 0.0000000000000000e+00  5.7576235860987263e-15 -2.8450975365116821e-16 0.0000000000000000e+00  4.6982482551304576e-15 3.8123915102693500e-16 0.0000000000000000e+00  3.2572997086789348e-15 1.1680804430238856e-15 0.0000000000000000e+00  3.2528031718771941e-15 6.3057037662430517e-16 0.0000000000000000e+00  2.6577698321388621e-15 1.4299621482761580e-15 0.0000000000000000e+00  1.9362401692465361e-15 4.2385717503712741e-16 0.0000000000000000e+00  1.6611698545616735e-15 4.3106420216122948e-16 0.0000000000000000e+00  9.9961890644397839e-16 9.7753978043006305e-16 0.0000000000000000e+00  4.8259049286679067e-16 1.1004706775962410e-15 0.0000000000000000e+00  -8.4842070627860815e-18 2.0960120152130228e-16 0.0000000000000000e+00  5.6478734265905313e-16 1.4385813098980878e-16 0.0000000000000000e+00  3.0611515443395398e-17 -7.7317397737690328e-17 0.0000000000000000e+00  6.9000853382505914e-16 1.4938564895202840e-15 0.0000000000000000e+00  2.0078540842980500e-15 1.4039424983946952e-16 0.0000000000000000e+00  1.0900854977580199e-16 3.6287563960241206e-15 0.0000000000000000e+00  1.2863080919590972e-16 4.2939365455006028e-15 0.0000000000000000e+00  7.2368958937226037e-17 2.1500237976509883e-15 0.0000000000000000e+00  3.5343317044502381e-17 3.8296153073749282e-15 0.0000000000000000e+00  7.8643151586739927e-16 2.7098066917356541e-15 0.0000000000000000e+00  1.9623449030287125e-15 2.7088789358418453e-15 0.0000000000000000e+00  1.8127606836604449e-15 1.3122893528327603e-15 0.0000000000000000e+00  6.7387530293169265e-15 4.6119619055437937e-16 0.0000000000000000e+00  3.6320267692581408e-15 -3.0160022438091337e-16 0.0000000000000000e+00  4.5241526205712697e-15 3.8335629665446418e-16 0.0000000000000000e+00  3.3327352285534668e-15 -2.5759076601094129e-16 0.0000000000000000e+00  5.1642336242396714e-15 4.8505627491836090e-16 0.0000000000000000e+00  2.9617269599464465e-15 -2.5157516624808605e-16 0.0000000000000000e+00  6.3174284596905731e-16 4.3172548234116873e-15 0.0000000000000000e+00  2.9701296155243117e-15 4.7858657486850996e-15 0.0000000000000000e+00  5.6637396530356161e-16 6.0500205319562310e-15 0.0000000000000000e+00  1.7626396490569640e-15 5.5945560348757235e-15 0.0000000000000000e+00  7.7575122299548887e-16 4.5744750000030563e-15 0.0000000000000000e+00  1.2803700331157995e-15 3.8538393915907724e-15 0.0000000000000000e+00  7.9174014316576971e-16 4.4777482616013799e-15 0.0000000000000000e+00  1.5487940698815813e-15 3.8537597292689229e-15 0.0000000000000000e+00  8.4467423476251185e-16 4.6876419494139460e-15 0.0000000000000000e+00  6.3809528021528132e-15 3.6325888873292652e-17 0.0000000000000000e+00  5.9514739181543981e-15 3.1728059856191238e-16 0.0000000000000000e+00  6.1896376387699589e-15 -4.1852936630148164e-16 0.0000000000000000e+00  1.4342565091740100e-15 1.5676516391566074e-15 0.0000000000000000e+00  1.3153077570504127e-15 8.8039903930882556e-16 0.0000000000000000e+00  4.2457829685245204e-16 3.0852256838785181e-15 0.0000000000000000e+00  1.7886590018982166e-15 1.9327356644857738e-15 0.0000000000000000e+00  9.6890546770414007e-16 2.1202305608773727e-15 0.0000000000000000e+00  6.3892678119778569e-16 5.4285729678293205e-16 0.0000000000000000e+00  6.8519640833047808e-16 2.6245626336188782e-15 0.0000000000000000e+00  4.5558851737967706e-16 2.4117692709495565e-15 0.0000000000000000e+00  1.5466237758327783e-17 9.6586583099215195e-16 0.0000000000000000e+00  3.5437554484814213e-15 1.1229493150340644e-15 0.0000000000000000e+00  1.9325038434661300e-15 -1.7833748365579760e-16 0.0000000000000000e+00  2.2575680954777043e-15 -2.5994736028724565e-16 0.0000000000000000e+00  5.4417518007538388e-15 6.9462052667021934e-16 0.0000000000000000e+00  1.2882652407604416e-15 6.1633560289207278e-15 0.0000000000000000e+00  1.5951520912109063e-15 3.4371219002937968e-15 0.0000000000000000e+00  1.3474430779675471e-15 4.6543292831930906e-15 0.0000000000000000e+00  1.7116975707179296e-16 2.5931828158503940e-15 0.0000000000000000e+00  4.7324163714405747e-15 5.4040148581508250e-17 0.0000000000000000e+00  5.8509531900761917e-15 9.9301165123680555e-16 0.0000000000000000e+00  4.7625671880247815e-15 -1.7411070227710152e-17 0.0000000000000000e+00  2.8534313120737935e-15 1.2606382132310191e-15 0.0000000000000000e+00  5.9258240523936759e-15 1.2954058615939960e-17 0.0000000000000000e+00  7.4178610734124340e-16 3.8221831870018201e-15 0.0000000000000000e+00  4.1638447860208553e-16 7.3685161964698805e-15 0.0000000000000000e+00  3.7477148882666461e-16 2.8448568426028833e-15 0.0000000000000000e+00  4.2582484642664671e-16 6.6350235378042771e-15 0.0000000000000000e+00  3.6063960658781650e-15 1.9130848510499229e-17 0.0000000000000000e+00  3.5051769941881944e-16 5.1453803397630017e-15 0.0000000000000000e+00  7.2345871704786623e-15 7.4585299571736884e-16 0.0000000000000000e+00  2.2384238525798090e-15 4.0947495637825029e-17 0.0000000000000000e+00  9.9618011460654076e-16 2.9332536107530461e-15 0.0000000000000000e+00  4.1996441019415679e-15 6.2024419705277220e-16 0.0000000000000000e+00  2.1899173035026233e-15 4.3735352974325470e-15 0.0000000000000000e+00  4.0172190398866703e-15 6.4415979817642701e-17 0.0000000000000000e+00  1.1840801643076686e-16 5.2047933683879502e-15 0.0000000000000000e+00  2.6955261522739706e-15 8.4983234992740726e-16 0.0000000000000000e+00  2.1848705204914807e-15 1.6055980802818376e-15 0.0000000000000000e+00  5.7656997230448815e-15 1.2518633180195722e-15 0.0000000000000000e+00  5.3606007798062142e-15 1.1425386594785244e-15 0.0000000000000000e+00  1.2674024573882141e-15 9.9320077221279821e-15 0.0000000000000000e+00  7.8083307911161004e-16 2.6842016379295243e-15 0.0000000000000000e+00  1.4733536849977629e-15 3.9153504175472902e-15 0.0000000000000000e+00  4.8826083511304828e-15 4.5338112288065302e-17 0.0000000000000000e+00  5.0573791644651029e-15 1.0258421902701429e-16 0.0000000000000000e+00  6.2565869510285097e-15 3.3764561466362351e-17 0.0000000000000000e+00  6.3657255377709688e-15 7.6134932055154488e-16 0.0000000000000000e+00  7.8467613819652311e-15 1.3808725256262891e-15 0.0000000000000000e+00  6.6781044300227998e-16 4.2825769138734293e-15 0.0000000000000000e+00  2.3759963481165088e-15 2.6364571329954875e-15 0.0000000000000000e+00  8.4918060731729943e-16 2.0833010535411093e-17 0.0000000000000000e+00  8.3197649550598466e-16 6.5503797979893140e-15 0.0000000000000000e+00  5.6772587231933552e-15 8.3546292116704372e-16 0.0000000000000000e+00  8.6203110742720927e-16 -1.1440279511963072e-16 0.0000000000000000e+00  1.3081699532221844e-16 -1.6472529232558128e-16 0.0000000000000000e+00  6.5708308165054300e-16 -1.4891683016371859e-17 0.0000000000000000e+00  -1.6816390070954173e-15 -2.0878468907186741e-16 0.0000000000000000e+00  -1.4926313747501749e-17 8.7802866747142848e-16 0.0000000000000000e+00  -2.4270179572118699e-16 -3.9425390289877731e-16 0.0000000000000000e+00  2.6911368483313248e-16 -1.6391933055305353e-16 0.0000000000000000e+00  7.8690079001874312e-16 1.7544868645380631e-17 0.0000000000000000e+00  2.4866082939568786e-16 -1.4917139927089165e-16 0.0000000000000000e+00  5.1485317581518045e-16 5.9550431238651582e-15 0.0000000000000000e+00  -6.3969265945175307e-16 -1.7441112648635058e-17 0.0000000000000000e+00  1.2689327685728765e-17 -8.3521994276876277e-17 0.0000000000000000e+00  -3.6570250598862468e-17 5.9582283418082627e-17 0.0000000000000000e+00  -1.2691898176751850e-16 -2.3287429034142656e-17 0.0000000000000000e+00  -4.7907540339382682e-17 2.4648693453919262e-16 0.0000000000000000e+00  4.2557180819079973e-16 -3.9329147891350854e-16 0.0000000000000000e+00  8.0756542814081085e-17 -3.4970215284480199e-17 0.0000000000000000e+00  3.0664925690931777e-16 2.8527761380356721e-16 0.0000000000000000e+00  7.3037328563085806e-17 9.5101329237897340e-16 0.0000000000000000e+00  3.6443358095829253e-16 5.5808773010150826e-17 0.0000000000000000e+00  -5.4344697037851404e-16 -6.2595789560573494e-16 0.0000000000000000e+00  -2.2742181321183601e-16 -4.9991022778332189e-16 0.0000000000000000e+00  -5.3166447700959180e-17 -1.6637907502913325e-16 0.0000000000000000e+00  9.8799622617186155e-17 5.7226260824672457e-16 0.0000000000000000e+00  -1.9073328580471280e-17 -7.8352621906713079e-16 0.0000000000000000e+00  6.8586791383632842e-16 5.4453216855937320e-17 0.0000000000000000e+00  -1.9471800056092375e-15 1.0418113076209461e-16 0.0000000000000000e+00  -1.5189437072196387e-15 -5.8288681868862399e-18 0.0000000000000000e+00  6.7869671070373667e-16 2.6944407334590413e-16 0.0000000000000000e+00  -3.0636863585865022e-17 9.6123994038484441e-17 0.0000000000000000e+00  -1.2929886673418594e-16 -1.5294352681325313e-15 0.0000000000000000e+00  -2.9102654000806816e-17 2.8623136799399305e-16 0.0000000000000000e+00  -6.4715926668831733e-17 -3.8161910061490854e-16 0.0000000000000000e+00  -5.1850541059807382e-18 -3.3383053285971120e-16 0.0000000000000000e+00  4.3622527119707428e-18 1.4576637664294947e-15 0.0000000000000000e+00  1.2229772230671069e-17 1.1259847967129792e-15 0.0000000000000000e+00  2.2287783220530809e-15 8.2463518659426832e-18 0.0000000000000000e+00  1.6134319208370151e-15 1.8654163686193101e-17 0.0000000000000000e+00  2.3344164796047537e-17 1.2711350112198236e-15 0.0000000000000000e+00  -1.1054144548316868e-16 -2.4310369454801147e-16 0.0000000000000000e+00  4.5241494190463037e-17 -1.6119466079709923e-15 0.0000000000000000e+00  -8.2718588066670115e-16 1.7078874421498106e-16 0.0000000000000000e+00  -4.0873025327117010e-17 -3.3856138502222489e-16 0.0000000000000000e+00  -4.8843433778502623e-17 -6.6788426018852818e-17 0.0000000000000000e+00  2.6314484853722290e-16 1.4258690333478740e-17 0.0000000000000000e+00  -1.7158683571271004e-16 3.4428269522241686e-17 0.0000000000000000e+00  -4.0101853204467784e-16 -6.8355144987444985e-17 0.0000000000000000e+00  -6.5847282599880333e-16 -5.6033161782058731e-17 0.0000000000000000e+00  -2.3418787860191128e-15 2.5832795640308450e-16 0.0000000000000000e+00  -9.8648206862063157e-16 -3.2989296242602769e-17 0.0000000000000000e+00  1.9675733158630672e-16 -1.2715116383624446e-15 0.0000000000000000e+00  -1.4934572801762031e-16 2.0709760745933567e-15 0.0000000000000000e+00  3.4585486496147371e-16 -2.0303073442652803e-15 0.0000000000000000e+00  1.9939924866929761e-17 -8.8295567695651846e-16 0.0000000000000000e+00  -2.7563104926487118e-16 4.1833623139819132e-16 0.0000000000000000e+00  -1.9234058065082533e-15 -3.2679440875635711e-16 0.0000000000000000e+00  4.4866553326846198e-17 -1.8892551157905845e-16 0.0000000000000000e+00  -4.4955334440769566e-18 -4.7439169312617027e-16 0.0000000000000000e+00  -1.9508911807014645e-16 -1.6715247439011305e-15 0.0000000000000000e+00  9.3835188954934369e-17 1.3228606982766502e-16 0.0000000000000000e+00  2.8020138152287836e-17 5.5813206149072252e-17 0.0000000000000000e+00  2.7922187435253175e-17 -3.1826843607600591e-17 0.0000000000000000e+00  -2.0040544606402700e-17 -2.0883723662282465e-16 0.0000000000000000e+00  -1.5346116385801280e-16 -7.4657685653222807e-16 0.0000000000000000e+00  1.4552740964622886e-16 -9.9047267703331976e-16 0.0000000000000000e+00  -6.3999603045281486e-19 -1.4650133678679574e-15 0.0000000000000000e+00  -3.2863702684151526e-16 3.8643357706922052e-17 0.0000000000000000e+00  -6.0900539754657309e-17 1.7589802182923096e-15 0.0000000000000000e+00  -1.6981132860577246e-16 -2.4337623159484805e-15 0.0000000000000000e+00  1.0314204849945434e-17 -9.2086736761830251e-16 0.0000000000000000e+00  -2.0491514266768760e-15 2.5081966650199805e-17 0.0000000000000000e+00  -1.0906144461220192e-16 1.2944296579761921e-17 0.0000000000000000e+00  -6.8857702572719918e-16 -1.9796151247164734e-16 0.0000000000000000e+00  -4.0019237993430923e-18 -1.6008409468308417e-15 0.0000000000000000e+00  7.5357994301352618e-16 1.9663544420285113e-16 0.0000000000000000e+00  3.6731250542942914e-16 3.5342870563617973e-16 0.0000000000000000e+00  -1.0385028988909016e-17 5.2303114679635809e-16 0.0000000000000000e+00  2.1194226648468721e-16 6.4793400783766898e-16 0.0000000000000000e+00  -4.8375267332540748e-16 -2.1566770308474326e-15 0.0000000000000000e+00  3.0481922155852782e-16 4.2846128160850566e-16 0.0000000000000000e+00  -1.8221960404450392e-16 -2.6338489677865598e-16 0.0000000000000000e+00  -6.0756447057962298e-16 -1.0167813875860701e-16 0.0000000000000000e+00  -1.8893299867909134e-16 -1.3713126984905252e-15 0.0000000000000000e+00  -3.3973816407369370e-16 -8.2534024267554233e-17 0.0000000000000000e+00  2.7646446343802271e-16 3.4661795641877940e-17 0.0000000000000000e+00  4.9604737627527197e-16 -4.0009920166901919e-17 0.0000000000000000e+00  2.8147224863368809e-16 2.9425211847683575e-17 0.0000000000000000e+00  2.1138696698256155e-16 -1.1074812738337387e-16 0.0000000000000000e+00  -3.1442277036172747e-17 -1.9471253451437259e-16 0.0000000000000000e+00  -1.1585367916825560e-15 -3.4228007634306468e-16 0.0000000000000000e+00  -1.7164441344110668e-16 -2.6688767851075196e-17 0.0000000000000000e+00  9.8742587363902012e-17 -1.6944619464141481e-16 0.0000000000000000e+00  -1.3351803136830832e-15 -1.2831026119959100e-15 0.0000000000000000e+00  -1.0691588407439446e-15 -7.3958492558032136e-16 0.0000000000000000e+00  -3.7998900132422813e-16 -4.2769812537335665e-16 0.0000000000000000e+00  2.5246908702808734e-16 -1.5592281103041702e-15 0.0000000000000000e+00  -4.5809649431402634e-19 1.7994427291137661e-16 0.0000000000000000e+00  -4.0577070521362004e-16 -1.2827043031340875e-17 0.0000000000000000e+00  -6.2375273768847122e-16 -2.1364868650036187e-16 0.0000000000000000e+00  -3.3071949752458004e-16 -8.2346542766956139e-16 0.0000000000000000e+00  -3.1851030049378676e-16 -4.1462320544179889e-17 0.0000000000000000e+00  -2.8747741317192099e-15 -1.8775804508462924e-16 0.0000000000000000e+00  1.8810706270556589e-16 -4.9445287205400689e-16 0.0000000000000000e+00  -2.3024036534860046e-15 -9.5375882918640372e-16 0.0000000000000000e+00  2.7937185461695098e-15 -2.5384532125121310e-17 0.0000000000000000e+00  -4.2689281107419466e-15 1.5865425394853356e-16 0.0000000000000000e+00  -4.6466542493243845e-16 3.9766186799939810e-16 0.0000000000000000e+00  -6.1150561208514668e-16 2.3977145863060367e-16 0.0000000000000000e+00  8.1050378271942202e-16 1.5190968828437108e-15 0.0000000000000000e+00  1.6931000150413500e-15 -2.8261063868707618e-17 0.0000000000000000e+00  -2.2366338770714248e-15 -2.6562872254942361e-17 0.0000000000000000e+00  2.4685035605791311e-15 -3.7519238501108701e-17 0.0000000000000000e+00  -2.3604741279749787e-16 -1.4001189361818450e-17 0.0000000000000000e+00  -1.3697348293965626e-15 4.6742240800925103e-17 0.0000000000000000e+00  -4.7269320413046693e-16 -4.3204728481335432e-17 0.0000000000000000e+00  -1.4502821833510119e-15 -8.6134918563373640e-18 0.0000000000000000e+00  6.1784553324258897e-16 -1.1627466565061344e-16 0.0000000000000000e+00  -2.3097323800208118e-17 -4.4177023567307987e-16 0.0000000000000000e+00  -9.9695983186027163e-16 3.9286516359697005e-17 0.0000000000000000e+00  -3.0454151817658444e-16 -7.2567137644514828e-16 0.0000000000000000e+00  -4.9380888606413622e-16 -1.5061823437624505e-15 0.0000000000000000e+00  -2.9242031919109825e-16 2.8733467399311420e-17 0.0000000000000000e+00  -9.5644842734776669e-16 -4.3389029396211635e-16 0.0000000000000000e+00  -1.8553458337984020e-15 -3.2504359932800936e-18 0.0000000000000000e+00  1.9408359962001519e-17 -1.2966606411129079e-15 0.0000000000000000e+00  -9.9897517384270673e-16 1.1638309793060174e-16 0.0000000000000000e+00  2.5497407400867390e-15 -2.0221477170403722e-16 0.0000000000000000e+00  2.1643109515299903e-15 3.1116332475851398e-17 0.0000000000000000e+00  -2.7253044269432532e-18 -6.9580209307719730e-16 0.0000000000000000e+00  -1.2513336771197564e-16 3.3515596174190708e-16 0.0000000000000000e+00  -3.7451775326365162e-15 -5.1922956810239750e-16 0.0000000000000000e+00  3.8075911086693907e-16 -4.0212314773367301e-16 0.0000000000000000e+00  -1.5486990019984347e-16 1.4086540329600004e-17 0.0000000000000000e+00  -2.2794826191542832e-15 -7.6552741799768279e-16 0.0000000000000000e+00  -2.1869443968330498e-16 -3.9843466782393318e-15 0.0000000000000000e+00  -3.8261694630501102e-16 -6.8817120362156327e-16 0.0000000000000000e+00  -3.5164700268180779e-16 1.9465769087716465e-17 0.0000000000000000e+00  -5.3026077503388554e-16 1.6462708127238561e-16 0.0000000000000000e+00  3.2175618199707255e-16 2.5281573806526180e-15 0.0000000000000000e+00  -1.0885536068462581e-16 -5.1415996214217788e-16 0.0000000000000000e+00  2.0865266149725954e-16 1.0747474416420292e-15 0.0000000000000000e+00  -1.0231802942130589e-15 -4.3866941787365433e-15 0.0000000000000000e+00  -9.7226631025564851e-17 -7.2366706198845271e-16 0.0000000000000000e+00  -4.0479025728959849e-16 -1.8103158836014361e-15 0.0000000000000000e+00  2.5083694269628739e-17 -1.1267911048071540e-15 0.0000000000000000e+00  -6.4856105888905164e-17 3.0029255525601415e-17 0.0000000000000000e+00  -6.4034126594195222e-16 2.8820538317104308e-17 0.0000000000000000e+00  5.0502253331113777e-17 6.3031647444392711e-16 0.0000000000000000e+00  -1.0119299398083859e-16 -2.5380914855508197e-15 0.0000000000000000e+00  -1.0939297285673452e-15 -2.8127394465615073e-16 0.0000000000000000e+00  2.7450018085572163e-15 6.8385801619792347e-17 0.0000000000000000e+00  -3.9365176991767504e-16 4.6277065177940623e-16 0.0000000000000000e+00  2.5091385926760791e-17 -3.6923175174176359e-15 0.0000000000000000e+00  -1.3496500840225874e-16 4.8233849793993893e-17 0.0000000000000000e+00  -1.2947536266