<?xml version="1.0"?>
<VTKFile type="UnstructuredGrid"  version="0.1"  >
<UnstructuredGrid>
<Piece  NumberOfPoints="12837" NumberOfCells="25160">
<Points>
<DataArray  type="Float64"  NumberOfComponents="3"  format="ascii">-0.4874639560909119 0.111260466978157 0  -0.5 0 0  -0.4874639560909118 -0.1112604669781572 0  -0.4504844339512096 -0.2169418695587791 0  -0.3909157412340149 -0.3117449009293667 0  -0.3117449009293668 -0.3909157412340149 0  -0.2169418695587791 -0.4504844339512096 0  -0.1112604669781572 -0.4874639560909118 0  -3.061616997868383e-17 -0.5 0  0.1112604669781572 -0.4874639560909118 0  0.216941869558779 -0.4504844339512096 0  0.3117449009293667 -0.390915741234015 0  0.3909157412340147 -0.311744900929367 0  0.4504844339512095 -0.2169418695587791 0  0.4874639560909119 -0.111260466978157 0  0.5 0 0  0.4874639560909118 0.1112604669781572 0  0.4504844339512096 0.2169418695587791 0  0.3909157412340149 0.3117449009293667 0  0.3117449009293668 0.3909157412340149 0  0.2169418695587791 0.4504844339512096 0  0.1112604669781572 0.4874639560909118 0  3.061616997868383e-17 0.5 0  -0.1112604669781572 0.4874639560909118 0  -0.216941869558779 0.4504844339512096 0  -0.3117449009293667 0.390915741234015 0  -0.3909157412340147 0.311744900929367 0  -0.4504844339512095 0.2169418695587791 0  -1.1 1.1 0  -1.1 0 0  1.1 0 0  1.1 1.1 0  -1.1 -1.1 0  1.1 -1.1 0  0 -1.1 0  0 1.1 0  -1.1 -0.55 0  0.55 -1.1 0  1.1 -0.55 0  1.1 0.55 0  -1.1 0.55 0  -0.55 -1.1 0  -0.55 1.1 0  0.55 1.1 0  5.551115123125783e-17 1.665334536937735e-16 0  0.6663398863122794 0.6663398863122791 0  -0.6663398863122794 -0.6663398863122794 0  -0.6663398863122793 0.6663398863122795 0  0.6663398863122793 -0.6663398863122795 0  0.2883385204096159 -0.8240241488192156 0  -0.8 0 0  0.8 0 0  -0.2883385204096159 0.8240241488192156 0  0.2883385204096159 0.8240241488192156 0  -0.275 -1.1 0  -0.8137296345339549 0.3493292902542065 0  0.7691968053435165 -0.3403965171534225 0  -0.7691968053435165 -0.3403965171534224 0  0.8137296345339551 0.3493292902542064 0  -0.2705017153269808 -0.773049488531049 0  1.1 0.8250000000000001 0  0.8250000000000001 1.1 0  1.1 -0.8250000000000001 0  0.8250000000000001 -1.1 0  -1.1 0.8250000000000001 0  -0.8250000000000001 1.1 0  -0.8250000000000001 -1.1 0  -1.1 -0.8250000000000001 0  0 0.8113845792931161 0  0.007072477527379288 -0.8187738769332888 0  1.1 0.275 0  1.1 -0.275 0  -1.1 0.275 0  -0.275 1.1 0  0.275 -1.1 0  0.275 1.1 0  -1.1 -0.275 0  0.02816823497502773 -0.2499999999999999 0  -0.2374639560909118 -0.08309223200312943 0  0.25 -0.02816823497502778 0  -0.1778952633737171 0.1778952633737173 0  0.08309223200312948 0.2374639560909119 0  0.6875 0.9044521628094033 0  -0.9044521628094033 0.6875 0  0.8463389105089401 -0.8463389105089401 0  0.9044521628094033 0.6875 0  -0.8463389105089401 -0.8463389105089401 0  -0.767786457710924 0.8750783326923629 0  0.8677516869574191 -0.5506979707488757 0  -0.8677516869574192 -0.5506979707488756 0  -0.5050311643355169 -0.8555004540247985 0  -0.5701556468586396 -0.4567865287721606 0  0.6249950965330108 -0.8876837002882089 0  0.5701556468586395 -0.4567865287721607 0  0.3928657626645344 -0.6124864144470425 0  -0.592653592010189 0.4393117263502035 0  -0.4179614947106146 0.6138426574647371 0  -0.5292344651737774 0.8619935788915527 0  0.5926535920101891 0.4393117263502033 0  0.4248107255337702 0.6192605333809361 0  -0.4469834162493513 -0.6401729300299475 0  0.9006739696166555 0.9006739696166555 0  0.4798018989697899 0.9045243416864952 0  -0.9096531673941256 -0.1815147264791358 0  -0.9500000000000001 0 0  0.9500000000000001 0 0  0.6521320428699586 0.2281908711319545 0  -0.687773594604006 0.1793452688508528 0  0.1381474836556521 0.9550753510059677 0  -0.1375 0.9556922896465581 0  -0.1375 -0.9558400573365238 0  -0.6783448506972298 -0.9500094123501752 0  -0.9625000000000001 1.1 0  -1.1 0.9625000000000001 0  0.1452038542000676 -0.9554164009279873 0  0.875 -0.178378888693158 0  0.6793503582950227 -0.1556839898321528 0  0.1503116767474856 -0.6817816126977135 0  -0.1501232052114358 0.6818807752649215 0  0.224843964788616 0.6425671340716849 0  0.4403992229191585 -0.9418832717201049 0  -0.9255923214149538 0.1917223701372979 0  0.925592321414954 0.1917223701372979 0  -0.1654674019212394 -0.2633398615884157 0  0.2633398615884157 0.1654674019212394 0  0.2199174206378054 -0.2199174206378056 0  -0.6321077388721966 -0.2211840641163827 0  0.9496930499643419 -0.3840533576546167 0  -1.1 -0.4125 0  0.4892209988974057 -0.7667099924779079 0  -0.9622729494512566 -0.7061399025375782 0  1.1 -0.6875 0  -0.9625000000000001 -1.1 0  1.1 -0.9625000000000001 0  -0.07449011661556058 -0.6611180704222235 0  0.9201558410236723 0.5020324872420169 0  -0.7980259563196859 0.5347968030121897 0  -1.1 0.4125 0  -0.4125 1.1 0  -0.9404822608825543 0.89375 0  -0.9310348978548471 -0.392797243827761 0  -0.3451385467768902 -0.9355288124011237 0  0.7480397761709329 0.5143504158157237 0  -0.2824862267198052 -0.605330377080244 0  -0.9520915579684144 0.48125 0  0.5940338165669689 -0.295094959178099 0  -0.3171400979238754 0.07238515781857774 0  -0.07238515781857757 0.3171400979238754 0  -0.6875 1.1 0  0.7232332684232805 -0.4901806172551281 0  -0.7232332684232805 -0.4901806172551281 0  0.00338813553846288 0.655692289646558 0  -0.08845398977724174 -0.1280756351071957 0  0.11473577351878 -0.1051816471190254 0  0.1280756351071958 0.08845398977724203 0  -1.1 -0.9625000000000001 0  0.9625000000000001 -1.1 0  0.7921297170957761 0.7921297170957761 0  -0.3437500000000001 0.9650125732259328 0  0.5836124443421735 0.7936878997714175 0  0.65 0 0  -0.65 0 0  0.9664883964774059 -0.7562500000000001 0  -0.8124211746991734 -0.700257622122046 0  0.8170566656840113 -0.6956221311372082 0  0.963312045727999 0.3369953739214661 0  0.754216364371443 -0.9663173195149415 0  -0.9646845642933237 0.3341209191946947 0  0.4248945845939051 0.7671766797892229 0  0.1444746423966985 0.8107378728962151 0  1.1 -0.1375 0  -0.61875 0.9740926301799909 0  -0.4436314992969004 0.4648441946571232 0  0.446749005251518 0.4467490052515179 0  -0.6425762581319699 -0.809434358471983 0  -0.4237102526659775 -0.4914836457392125 0  0.3417556154465088 0.9649161802301053 0  1.1 0.9625000000000001 0  0.9625000000000001 1.1 0  -0.1346972861082186 -0.8140182440632158 0  0.004599123315319175 -0.9594136686545218 0  -0.7630020842896895 -0.1462286046077213 0  0.8937500000000002 -0.9780554058317621 0  -0.89375 -0.978055405831762 0  0.5307580899412138 -0.6335465795469118 0  -0.6735650381412928 0.3215315700647676 0  -0.2926124573178824 0.6815987298140569 0  0.2832002730267919 -0.9620860716296038 0  0.7808089105174282 0.1495688930967883 0  0.0003385874080656659 0.962016808709899 0  0.1396097490202794 -0.3341837278978841 0  -0.06174656588772961 -0.356871135866022 0  0.356871135866022 0.06174656588772962 0  0.3502422169756049 -0.1225550522669033 0  -0.3141898486624634 -0.1974185664662481 0  0.2104723163774097 0.2947389523832234 0  0.6875 -1.1 0  -0.4125 -1.1 0  1.1 -0.4125 0  1.1 0.1375 0  -1.1 0.1375 0  0.1375 -1.1 0  -0.6875 -1.1 0  -0.1375 -1.1 0  -0.1375 1.1 0  0.4125 -1.1 0  0.1375 1.1 0  -1.1 -0.1375 0  1.1 0.6875 0  -1.1 0.6875 0  0.6875 1.1 0  -1.1 -0.6875 0  1.1 0.4125 0  0.4125 1.1 0  -0.151176608331977 0.8191260725180923 0  0.1515495044630543 -0.8186697855688289 0  -0.526486564518479 0.7142024298560653 0  -0.5573848506159964 0.5762310871691408 0  0.720331182364698 -0.7909582169688955 0  0.9819791638121483 -0.622318971622832 0  -0.5246985929339253 -0.3296899772059645 0  0.3145426809485556 0.5426731239273453 0  -0.1846255388341355 0.04213957444465674 0  -0.0421395744446566 0.1846255388341357 0  0.4281875356850639 -0.4739192884886087 0  -0.4751434546088947 0.9830941382835867 0  -0.5218871269896868 0.327923416068668 0  0.5218871269896868 0.3279234160686678 0  -0.4014303854325054 0.7561410010683971 0  -0.4679926397922863 -0.9812422187131735 0  -0.3026615653521558 0.55036344815324 0  -0.5397081829995244 -0.7306642780966139 0  0.9911032692061623 -0.8937500000000002 0  -0.9763871746165429 -0.8739193086721466 0  0.254260682847422 -0.5864806602798783 0  -0.3643001290028616 -0.08087986416259899 0  -0.2060073154462889 0.3087931799966986 0  -0.3087931799966984 0.2060073154462891 0  0.05162583822629099 0.3675962661090195 0  -0.3863870983940469 -0.818198469145103 0  -0.7178509105469472 0.438636590802872 0  0.5248650937143274 0.544333731959085 0  0.5394102004945671 0.6744287826185811 0  0.9736442263428986 -0.2589551576123615 0  -0.6466016324836857 -0.3429461438153842 0  0.9882826862706525 -0.5001445473219641 0  -0.5692973074531109 0.1992057435931062 0  0.2679332586338489 -0.7057353379713655 0  0.97472163659182 0.7953658887002701 0  0.7953658887002701 0.97472163659182 0  -0.9858395265700997 0.7795544025957204 0  0.61875 1.002226081404702 0  -1.002226081404702 0.61875 0  1.002226081404702 0.61875 0  -0.7872795491246395 0.6557248622438615 0  0.7891733379062652 0.6344142792927272 0  -0.65214580987448 0.8022588499898194 0  -0.7374080037760796 0.9910247317792732 0  0.6858107639797646 0.3516178482725742 0  -0.8046606458159516 0.2243913597168291 0  -0.89375 1.00303902010377 0  0.04286108681466963 -0.6175947077223141 0  0.3212593971299798 0.7106672754906794 0  -0.6724373947869903 0.5480412062922982 0  0.6060749141796563 -0.7664549984213634 0  0.828899546032142 -0.4406615706566396 0  -0.9839844221761632 -0.5864783208180512 0  -0.8194224057691728 0.7691241460452193 0  0.6634571383747863 -0.387956122136344 0  0.6201350802686155 -0.56069693733135 0  -0.6285070347487245 -0.5568542402547564 0  0.4882373739369446 -0.3747481136125761 0  0.3811057632069687 -0.727045806314891 0  -0.8278834699170806 -0.4430880104260875 0  -0.875 0.08786676842428248 0  0.9801792185070523 -0.1176453979923067 0  -0.763389314798812 -0.5971032269598143 0  0.6706650544504121 0.1139123170284505 0  -0.2356231320439919 -0.8874537102254196 0  0.7577073913635143 -0.5985815095441068 0  0.8772193009776941 0.08814930188612236 0  -0.1918772948459984 -0.6831435764250359 0  0.63831026039397
[...]
<PointData  Vectors="f_112"> 
<DataArray  type="Float64"  Name="f_112"  NumberOfComponents="3" format="ascii">9.2123928841666439e-02 -2.1026685593292814e-02 0.0000000000000000e+00  6.3240015330130309e-02 2.3795157249301040e-18 0.0000000000000000e+00  1.5584772035646647e-02 3.5571225169944236e-03 0.0000000000000000e+00  -4.1521557197170628e-02 -1.9995728079522206e-02 0.0000000000000000e+00  -8.6860814069907796e-02 -6.9269187757413642e-02 0.0000000000000000e+00  -9.2768532232136075e-02 -1.1632806000228250e-01 0.0000000000000000e+00  -5.7090845256859396e-02 -1.1855036172426830e-01 0.0000000000000000e+00  -1.6249463599979815e-02 -7.1193551725398374e-02 0.0000000000000000e+00  -9.6798668636800480e-18 -7.3688115739248142e-03 0.0000000000000000e+00  -1.0305101727257708e-02 4.5149600683183584e-02 0.0000000000000000e+00  -3.6368693121300699e-02 7.5520369431753664e-02 0.0000000000000000e+00  -6.6228390348882865e-02 8.3047774724742993e-02 0.0000000000000000e+00  -9.0014456431892070e-02 7.1784133619148635e-02 0.0000000000000000e+00  -1.0031123482410957e-01 4.8307344672533191e-02 0.0000000000000000e+00  -9.2123928841666078e-02 2.1026685593292762e-02 0.0000000000000000e+00  -6.3240015330130864e-02 1.1246218443014078e-18 0.0000000000000000e+00  -1.5584772035647218e-02 -3.5571225169942571e-03 0.0000000000000000e+00  4.1521557197170475e-02 1.9995728079522459e-02 0.0000000000000000e+00  8.6860814069907755e-02 6.9269187757413947e-02 0.0000000000000000e+00  9.2768532232136269e-02 1.1632806000228273e-01 0.0000000000000000e+00  5.7090845256859243e-02 1.1855036172426812e-01 0.0000000000000000e+00  1.6249463599979808e-02 7.1193551725398277e-02 0.0000000000000000e+00  -5.0496368274804697e-18 7.3688115739247795e-03 0.0000000000000000e+00  1.0305101727257612e-02 -4.5149600683182925e-02 0.0000000000000000e+00  3.6368693121300547e-02 -7.5520369431753984e-02 0.0000000000000000e+00  6.6228390348882657e-02 -8.3047774724741924e-02 0.0000000000000000e+00  9.0014456431892223e-02 -7.1784133619148649e-02 0.0000000000000000e+00  1.0031123482411082e-01 -4.8307344672533635e-02 0.0000000000000000e+00  -1.3607786357965900e-15 1.6076099034429435e-15 0.0000000000000000e+00  -1.9166661039228483e-15 3.4409979040972370e-18 0.0000000000000000e+00  1.6530059145194904e-15 1.3955355936434960e-18 0.0000000000000000e+00  1.8710720856501187e-15 1.8206079906545169e-15 0.0000000000000000e+00  -1.6664959214360620e-15 -1.6420858941518994e-15 0.0000000000000000e+00  2.2452037956969341e-15 -1.7230139657817003e-15 0.0000000000000000e+00  4.7789629479209870e-19 -1.6854251826237265e-15 0.0000000000000000e+00  -1.7990763414647026e-18 2.1052121924064984e-15 0.0000000000000000e+00  -1.8744684452221497e-15 -8.7632355354424847e-16 0.0000000000000000e+00  7.3067396900147838e-16 -1.2486915148087962e-15 0.0000000000000000e+00  1.6084374838472709e-15 -6.4433283537537260e-16 0.0000000000000000e+00  2.7143210236394060e-15 1.3568494045801949e-15 0.0000000000000000e+00  -1.8793570417160750e-15 8.5970385909564882e-16 0.0000000000000000e+00  -9.3322498833144134e-16 -1.5999600461138884e-15 0.0000000000000000e+00  -6.8847469469976335e-16 1.0780634573877804e-15 0.0000000000000000e+00  7.4504041058208882e-16 1.3728720120310246e-15 0.0000000000000000e+00  -4.9624017674881708e-06 -1.5607968097152671e-06 0.0000000000000000e+00  1.2839874417216280e-02 1.9016808866733240e-02 0.0000000000000000e+00  -1.2839403976321129e-02 -1.9019306394387064e-02 0.0000000000000000e+00  2.1201342487353635e-02 -1.5754233142356942e-02 0.0000000000000000e+00  -2.1205138201687079e-02 1.5751955986261213e-02 0.0000000000000000e+00  -1.3666130710167252e-02 1.1856997827780630e-02 0.0000000000000000e+00  5.0592012264103939e-02 3.6552542455442252e-18 0.0000000000000000e+00  -5.0592012264103800e-02 7.9761642603673472e-18 0.0000000000000000e+00  1.3666203810857144e-02 -1.1853139613478917e-02 0.0000000000000000e+00  1.3774923008142564e-02 2.0014317822034514e-02 0.0000000000000000e+00  -4.5437837567529727e-16 -1.6354990662335055e-15 0.0000000000000000e+00  2.9926996100137639e-02 -1.2184261207812677e-02 0.0000000000000000e+00  -3.5073363504560195e-02 1.4718901326345500e-02 0.0000000000000000e+00  -1.1447488572609813e-03 -1.3284246995657218e-02 0.0000000000000000e+00  -1.3596379753320545e-04 1.1177533006574885e-02 0.0000000000000000e+00  -1.6743408443174037e-02 -2.5060617807549278e-02 0.0000000000000000e+00  1.3354552677990352e-15 2.0927059991446894e-15 0.0000000000000000e+00  1.0882917849126345e-15 1.7754816509461102e-15 0.0000000000000000e+00  2.4056972959233938e-15 -1.1800855125190891e-15 0.0000000000000000e+00  8.6060894986221103e-16 -1.1914839318163801e-15 0.0000000000000000e+00  -1.1776468608334196e-15 7.2507391955963985e-16 0.0000000000000000e+00  -1.6468113414598914e-15 1.9951349439434084e-15 0.0000000000000000e+00  -1.3166016687639767e-15 -1.7111496883390844e-15 0.0000000000000000e+00  -1.5368262534411582e-15 -1.1022942757114232e-15 0.0000000000000000e+00  1.1435061459343532e-02 5.0176714869310923e-03 0.0000000000000000e+00  -1.1192079629637123e-02 -4.3081479605493926e-03 0.0000000000000000e+00  2.0662417419815183e-15 4.9429046126990543e-16 0.0000000000000000e+00  2.1910095385469058e-15 -4.1217468259316077e-16 0.0000000000000000e+00  -1.8108550329697510e-15 3.3952951700899266e-16 0.0000000000000000e+00  -2.6362365205487928e-16 1.6838566991497171e-15 0.0000000000000000e+00  5.1477197095164346e-16 -2.3830038762560736e-15 0.0000000000000000e+00  2.9609630049691014e-16 1.8832087591820924e-15 0.0000000000000000e+00  -1.7086708612502994e-15 -3.1489139312141129e-16 0.0000000000000000e+00  -2.4017395631028032e-02 -5.4724425410907964e-05 0.0000000000000000e+00  -1.9845562777851225e-04 -2.4476311405788806e-02 0.0000000000000000e+00  -2.3371808532930836e-02 2.2170380546835358e-02 0.0000000000000000e+00  3.3690155935693078e-02 -2.4181650875622143e-02 0.0000000000000000e+00  2.3378534036525383e-02 2.3601553778106167e-02 0.0000000000000000e+00  5.5198125312226768e-03 8.2263542987522711e-03 0.0000000000000000e+00  9.7321161988805274e-03 -6.1734325029248020e-03 0.0000000000000000e+00  -7.1509845252312404e-03 5.0988259743381279e-03 0.0000000000000000e+00  4.0536394776969804e-03 7.0382519828884396e-03 0.0000000000000000e+00  -3.9614183519161485e-03 -6.1929414603686672e-03 0.0000000000000000e+00  7.9586733770298512e-03 -5.9508845060607636e-03 0.0000000000000000e+00  -1.6352944821475209e-02 9.2068223179406512e-03 0.0000000000000000e+00  -4.7539402115350619e-03 -9.8614574548817596e-03 0.0000000000000000e+00  -1.0432298466400371e-02 -1.5252733223200957e-02 0.0000000000000000e+00  -2.5923974564567995e-02 -3.3620337750717419e-02 0.0000000000000000e+00  -9.7400738128298452e-03 7.8994763627582669e-03 0.0000000000000000e+00  -4.4158878062777365e-02 3.1019206669217612e-02 0.0000000000000000e+00  -3.0656745145849398e-02 3.1921987712860846e-02 0.0000000000000000e+00  4.4357765663830012e-02 -2.9289970576484081e-02 0.0000000000000000e+00  3.0784466284734215e-02 -3.0801023154326257e-02 0.0000000000000000e+00  1.2068269357239914e-02 -1.0315785187753774e-02 0.0000000000000000e+00  2.3023071314446579e-02 3.0698472100807953e-02 0.0000000000000000e+00  2.8328368014094010e-02 4.0795582501179081e-02 0.0000000000000000e+00  -2.5429786099018022e-02 -3.6538911197987536e-02 0.0000000000000000e+00  2.4257793111267367e-03 3.8094691707143366e-03 0.0000000000000000e+00  8.4719759010854091e-03 1.2354350037104514e-02 0.0000000000000000e+00  1.3721035222179042e-02 -3.9675359153959339e-03 0.0000000000000000e+00  3.0039007281811143e-02 -5.0129022800086507e-18 0.0000000000000000e+00  -3.0039007281811098e-02 -1.6250778755454982e-18 0.0000000000000000e+00  -3.3586720487928756e-03 1.3777937604494646e-02 0.0000000000000000e+00  5.3698934894255215e-02 -1.4113953047344776e-02 0.0000000000000000e+00  6.4696097205831048e-03 6.7113373526268057e-03 0.0000000000000000e+00  6.3319672689805019e-03 -1.9765671540605211e-03 0.0000000000000000e+00  -6.4344178197047412e-03 -6.6615818882927759e-03 0.0000000000000000e+00  -4.3399316661244976e-03 -6.4541631616759302e-03 0.0000000000000000e+00  -1.3472875762262895e-15 2.2981500619457685e-15 0.0000000000000000e+00  -1.6633841410137273e-15 1.8094125283039012e-15 0.0000000000000000e+00  -6.3746450869754103e-03 2.1958512455564510e-03 0.0000000000000000e+00  -3.0618772824046393e-02 5.8309174340534526e-03 0.0000000000000000e+00  -5.5745050837841349e-02 1.2995442802445301e-02 0.0000000000000000e+00  -1.6557692402186869e-02 1.4815569849821507e-02 0.0000000000000000e+00  1.6539862939409015e-02 -1.4792405620208889e-02 0.0000000000000000e+00  2.5120609487772245e-02 4.3279803418958110e-02 0.0000000000000000e+00  -8.0123162560022023e-03 6.8654876487848036e-03 0.0000000000000000e+00  2.3616108929210133e-02 -4.5750440128634615e-03 0.0000000000000000e+00  -1.1988358007049858e-02 3.8041697462453295e-03 0.0000000000000000e+00  -3.1679987039138040e-02 -4.3295832232029513e-02 0.0000000000000000e+00  1.9233905013290142e-02 3.4039458106501899e-02 0.0000000000000000e+00  -4.3057075677861510e-02 3.3881109889075917e-02 0.0000000000000000e+00  2.4580311785733630e-03 -1.3992894992064466e-02 0.0000000000000000e+00  -1.4915848551564151e-02 5.8854741484462465e-03 0.0000000000000000e+00  -1.8749766792667094e-15 -4.9722111510650995e-16 0.0000000000000000e+00  -1.8199098048915466e-02 1.6223067336328899e-02 0.0000000000000000e+00  -2.6590005350353397e-03 -4.6930290543994628e-03 0.0000000000000000e+00  1.1376501602574884e-15 -1.2725057032888386e-15 0.0000000000000000e+00  -1.0661871678331052e-15 -1.8445791692320773e-15 0.0000000000000000e+00  1.7593746810269987e-15 -1.4296419967139186e-15 0.0000000000000000e+00  -1.5766672238927762e-02 -2.1741802668784681e-02 0.0000000000000000e+00  2.5931617222177037e-03 7.4435902131158851e-03 0.0000000000000000e+00  2.1845313280424640e-02 -1.2729360182994375e-02 0.0000000000000000e+00  -1.8134810007241430e-15 7.6759973012699580e-16 0.0000000000000000e+00  -4.9430717030521566e-16 1.9777093780744288e-15 0.0000000000000000e+00  3.6967694857796907e-03 -2.5890591590224635e-03 0.0000000000000000e+00  3.3197005817877853e-04 -6.4605333317992314e-03 0.0000000000000000e+00  -7.7918916481233965e-03 -1.1044323130662852e-02 0.0000000000000000e+00  9.6140582345491665e-03 1.6847989749516300e-02 0.0000000000000000e+00  -3.1608292853927543e-02 -5.2396664329515431e-02 0.0000000000000000e+00  1.2196473299010730e-02 -5.8839976120551940e-03 0.0000000000000000e+00  -5.9503792278439209e-02 2.8948790016300827e-02 0.0000000000000000e+00  4.1657526207235514e-02 -2.5211182459330930e-02 0.0000000000000000e+00  2.6210950210172737e-02 -1.2401747356444424e-02 0.0000000000000000e+00  -1.2254634095075133e-15 1.6202987926417902e-15 0.0000000000000000e+00  -2.9828171521002957e-02 1.7679655992712876e-02 0.0000000000000000e+00  -1.0846987840723923e-02 -1.8639787734550800e-02 0.0000000000000000e+00  1.3692425545667969e-02 8.5219347384833145e-03 0.0000000000000000e+00  -1.1800625057399495e-02 -1.5539854374017956e-02 0.0000000000000000e+00  -1.9914772228840971e-02 1.2978799854094718e-02 0.0000000000000000e+00  5.3009674610663528e-03 1.7651719492347943e-02 0.0000000000000000e+00  -3.1541958073395357e-15 -1.9937135048885734e-15 0.0000000000000000e+00  1.3478651913605039e-15 -1.3883540654625979e-15 0.0000000000000000e+00  5.9303849908102727e-03 9.1907452666040567e-03 0.0000000000000000e+00  6.6980671655112681e-03 -5.4137863509840633e-03 0.0000000000000000e+00  1.1494243592583038e-02 1.6816624710170716e-02 0.0000000000000000e+00  -6.1659014946876978e-02 -1.3354920208462511e-18 0.0000000000000000e+00  6.1659014946876665e-02 5.4605562451247066e-18 0.0000000000000000e+00  -5.4301246230260029e-03 3.5351513108466317e-03 0.0000000000000000e+00  -6.5791083981428123e-03 -1.0617238113346195e-02 0.0000000000000000e+00  -1.3476067513772859e-02 9.0273337552916055e-03 0.0000000000000000e+00  -2.3385758406090436e-03 4.7013764776395219e-03 0.0000000000000000e+00  -4.7631600116224805e-03 3.6440286091521889e-03 0.0000000000000000e+00  1.4645854618948444e-02 -5.0019369050964243e-03 0.0000000000000000e+00  1.6639077439790879e-02 2.4519706775213840e-02 0.0000000000000000e+00  1.2928880378996182e-02 1.5980188821088183e-02 0.0000000000000000e+00  2.3239700435968119e-15 -2.8964004455862518e-16 0.0000000000000000e+00  5.6635100121150252e-03 -4.6162749659416314e-03 0.0000000000000000e+00  5.0037824883065539e-02 -4.5338383068217289e-02 0.0000000000000000e+00  4.6786952421524565e-02 5.5761731268676791e-02 0.0000000000000000e+00  -9.3481198982504725e-03 -1.3810159036574831e-02 0.0000000000000000e+00  -4.4095730528351147e-02 -5.6982395498706040e-02 0.0000000000000000e+00  6.3473033892151405e-03 8.9174819331803955e-03 0.0000000000000000e+00  1.0406203111902161e-15 1.4839389617109421e-15 0.0000000000000000e+00  1.5618771988701113e-15 1.9240476057637789e-15 0.0000000000000000e+00  -1.2648020961876874e-02 -1.5119655634493766e-02 0.0000000000000000e+00  -5.9562461093519078e-03 -2.2128696109259193e-03 0.0000000000000000e+00  2.3131027486500838e-02 -5.9898880992177014e-03 0.0000000000000000e+00  -2.7374913919840371e-03 1.9847920334874628e-03 0.0000000000000000e+00  -1.5753493011516637e-03 -2.4438020926474879e-03 0.0000000000000000e+00  -2.7872669923947654e-02 2.3776562410100351e-02 0.0000000000000000e+00  4.6965746403185328e-02 -2.1502059072132380e-02 0.0000000000000000e+00  2.2141137573602403e-02 -2.4177782136400205e-02 0.0000000000000000e+00  -6.6490621897655087e-03 4.8858079111649740e-03 0.0000000000000000e+00  -2.2354832034654708e-02 5.7851050100863905e-03 0.0000000000000000e+00  5.8498209148977100e-03 2.3279578297081436e-03 0.0000000000000000e+00  -3.2220538347861039e-02 3.1905534885837826e-02 0.0000000000000000e+00  -2.4913020199045028e-02 -3.0390041706155169e-02 0.0000000000000000e+00  -1.4814944107500809e-02 1.9339578750910434e-02 0.0000000000000000e+00  -5.7508716201912523e-02 3.0421682924194181e-02 0.0000000000000000e+00  -3.0277503752297513e-02 -3.9005809751983221e-02 0.0000000000000000e+00  4.2423840912729251e-02 5.8648057652914934e-02 0.0000000000000000e+00  1.2247303170404807e-15 -2.3734610944341472e-15 0.0000000000000000e+00  -6.8720789501903182e-16 -1.7938981632632538e-15 0.0000000000000000e+00  9.0336552104883430e-16 -7.2745488343371108e-16 0.0000000000000000e+00  2.2319547131069806e-15 2.9683232784994137e-16 0.0000000000000000e+00  -1.6337380903220142e-15 3.8555703549327245e-16 0.0000000000000000e+00  1.6932605617410217e-16 -1.1013986900763984e-15 0.0000000000000000e+00  -9.7751979281615198e-16 -1.9447854050496851e-15 0.0000000000000000e+00  -9.6169093337530735e-17 -2.4861115360556318e-15 0.0000000000000000e+00  -1.7591406966095334e-16 1.7005525250561404e-15 0.0000000000000000e+00  -2.5078940554772248e-16 -3.3216729241318452e-15 0.0000000000000000e+00  2.2842469730160796e-16 1.2382752665313636e-15 0.0000000000000000e+00  -2.3806460617966438e-15 -3.1593064643933374e-16 0.0000000000000000e+00  1.7645300934030815e-15 9.3257300664755073e-16 0.0000000000000000e+00  -1.6002810418431540e-15 9.9648902438095790e-16 0.0000000000000000e+00  1.1325781289555429e-15 2.4570140069437080e-15 0.0000000000000000e+00  -1.7772915185438459e-15 -1.2215617500371139e-15 0.0000000000000000e+00  1.2469537376160854e-15 6.7362805860070996e-16 0.0000000000000000e+00  6.4568088874427022e-16 3.1919840942499754e-15 0.0000000000000000e+00  1.2040603997990253e-02 -6.2427253662032658e-03 0.0000000000000000e+00  -1.2063492346670538e-02 6.2833481729409760e-03 0.0000000000000000e+00  2.1517453072975298e-02 -1.8662308622012971e-02 0.0000000000000000e+00  3.2318066584917836e-02 -2.5929113038049140e-02 0.0000000000000000e+00  -1.2646971678637686e-02 9.4912437988435901e-03 0.0000000000000000e+00  -7.0756518743605307e-03 4.0948862573925247e-03 0.0000000000000000e+00  -3.3144677072694390e-02 -3.4912434347005285e-02 0.0000000000000000e+00  4.2041739642503316e-02 6.5904009586912823e-02 0.0000000000000000e+00  1.8519337407601203e-02 -1.8910838945400285e-02 0.0000000000000000e+00  2.1434619117834675e-02 -2.9552379636596472e-03 0.0000000000000000e+00  -4.8919317189076189e-02 4.6328878182886085e-02 0.0000000000000000e+00  5.8253332322830698e-03 -4.9403820346423715e-03 0.0000000000000000e+00  6.5997174423636659e-02 -4.0057793932501529e-02 0.0000000000000000e+00  3.3788866016221754e-02 3.5193678781435526e-02 0.0000000000000000e+00  1.8936607231164335e-02 -1.8000585483241203e-02 0.0000000000000000e+00  -5.0998998241292550e-03 -7.3931367173772208e-03 0.0000000000000000e+00  3.4070597073207039e-02 -4.4175555356267347e-02 0.0000000000000000e+00  -1.5736087424576006e-02 -2.2796080008952023e-02 0.0000000000000000e+00  -2.5462002873845348e-03 1.7616097078688381e-03 0.0000000000000000e+00  -1.6265117566864654e-03 -2.6163972001139501e-03 0.0000000000000000e+00  -2.7106406913183480e-02 3.6943412926434376e-02 0.0000000000000000e+00  9.6656020220856342e-03 -1.9302294045200750e-02 0.0000000000000000e+00  4.3216170173171496e-02 -4.3831783936240529e-02 0.0000000000000000e+00  5.9561931418751358e-02 -4.1400314043686881e-02 0.0000000000000000e+00  2.3598159472241406e-02 2.7805302040605575e-02 0.0000000000000000e+00  -1.3951938169197204e-02 -2.0531914521261768e-02 0.0000000000000000e+00  3.3799919561434369e-02 -1.8630934992718298e-02 0.0000000000000000e+00  2.7463182568742684e-02 3.6797579200894021e-02 0.0000000000000000e+00  1.8703610195877990e-02 2.6751557548980322e-02 0.0000000000000000e+00  -1.5495588971436221e-02 4.0221715396274458e-03 0.0000000000000000e+00  -1.1857475936928097e-02 -2.1759792537739638e-02 0.0000000000000000e+00  -8.8763085807982579e-03 4.3522726007805008e-03 0.0000000000000000e+00  7.1227842242867767e-02 -2.5632258947484911e-02 0.0000000000000000e+00  -1.9833490132674925e-02 2.0774624189640670e-02 0.0000000000000000e+00  2.0901958985751266e-03 3.4692131475439498e-03 0.0000000000000000e+00  2.4968091860841880e-03 3.7942513950375996e-03 0.0000000000000000e+00  4.3015114041886722e-03 -2.8268896858299869e-03 0.0000000000000000e+00  3.2568713411621130e-03 4.8009094533555795e-03 0.0000000000000000e+00  5.9232618775540216e-03 -3.3955591771379842e-03 0.0000000000000000e+00  1.7983250545169284e-03 3.7134048304748681e-03 0.0000000000000000e+00  1.6570508688959412e-02 -1.1009469068304526e-02 0.0000000000000000e+00  7.8995817653845449e-03 1.2988740698224003e-02 0.0000000000000000e+00  1.3686183382844297e-02 -1.0802376755365242e-02 0.0000000000000000e+00  4.0105163224381131e-03 -3.0996590911501433e-03 0.0000000000000000e+00  8.1805585481655105e-03 1.9004730006608139e-02 0.0000000000000000e+00  3.7070772645223640e-02 -9.9507147627331625e-03 0.0000000000000000e+00  2.1685070727632733e-03 -1.5787401180261506e-03 0.0000000000000000e+00  -1.2886349596682391e-02 1.9543019233802484e-03 0.0000000000000000e+00  2.1627580819904214e-02 3.3291797911549958e-02 0.0000000000000000e+00  2.9112891357377820e-02 -1.9631486892955428e-02 0.0000000000000000e+00  -1.6657886997072702e-02 1.3522646211439443e-02 0.0000000000000000e+00  -2.4047838034326082e-02 1.1777799824088523e-02 0.0000000000000000e+00  -2.0533858428281532e-03 -4.5503560502614194e-03 0.0000000000000000e+00  1.0558923507591815e-02 -7.3815436165977260e-03 0.0000000000000000e+00  -4.2752879338119387e-02 2.3143934441098031e-02 0.0000000000000000e+00  -3.0968445379753781e-02 2.2552268253782613e-02 0.0000000000000000e+00  -1.7829888599488749e-02 -2.5524264466646452e-02 0.0000000000000000e+00  -6.2604778338366321e-02 4.5149747824594591e-02 0.0000000000000000e+00  -2.0801346037223212e-02 2.0438994600618269e-02 0.0000000000000000e+00  -3.9257647561055584e-03 -1.1808687642238419e-02 0.0000000000000000e+00  3.5215756712009702e-02 -3.0582610812769475e-03 0.0000000000000000e+00  -1.8798070870260645e-02 1.9727370302048057e-03 0.0000000000000000e+00  -9.1539640378398603e-03 -1.5032186141661385e-02 0.0000000000000000e+00  -2.9135092402156542e-02 5.5578243911294503e-03 0.0000000000000000e+00  -1.0096391073736151e-02 -1.3534679421176730e-02 0.0000000000000000e+00  -2.0989205497243080e-02 1.3604783962341776e-02 0.0000000000000000e+00  -2.7002