<?xml version="1.0"?>
<VTKFile type="UnstructuredGrid"  version="0.1"  >
<UnstructuredGrid>
<Piece  NumberOfPoints="867" NumberOfCells="1604">
<Points>
<DataArray  type="Float64"  NumberOfComponents="3"  format="ascii">-0.4874639560909119 0.111260466978157 0  -0.5 0 0  -0.4874639560909118 -0.1112604669781572 0  -0.4504844339512096 -0.2169418695587791 0  -0.3909157412340149 -0.3117449009293667 0  -0.3117449009293668 -0.3909157412340149 0  -0.2169418695587791 -0.4504844339512096 0  -0.1112604669781572 -0.4874639560909118 0  -3.061616997868383e-17 -0.5 0  0.1112604669781572 -0.4874639560909118 0  0.216941869558779 -0.4504844339512096 0  0.3117449009293667 -0.390915741234015 0  0.3909157412340147 -0.311744900929367 0  0.4504844339512095 -0.2169418695587791 0  0.4874639560909119 -0.111260466978157 0  0.5 0 0  0.4874639560909118 0.1112604669781572 0  0.4504844339512096 0.2169418695587791 0  0.3909157412340149 0.3117449009293667 0  0.3117449009293668 0.3909157412340149 0  0.2169418695587791 0.4504844339512096 0  0.1112604669781572 0.4874639560909118 0  3.061616997868383e-17 0.5 0  -0.1112604669781572 0.4874639560909118 0  -0.216941869558779 0.4504844339512096 0  -0.3117449009293667 0.390915741234015 0  -0.3909157412340147 0.311744900929367 0  -0.4504844339512095 0.2169418695587791 0  -1.1 1.1 0  -1.1 0 0  1.1 0 0  1.1 1.1 0  -1.1 -1.1 0  1.1 -1.1 0  0 -1.1 0  0 1.1 0  -1.1 -0.55 0  0.55 -1.1 0  1.1 -0.55 0  1.1 0.55 0  -1.1 0.55 0  -0.55 -1.1 0  -0.55 1.1 0  0.55 1.1 0  5.551115123125783e-17 1.665334536937735e-16 0  0.6663398863122794 0.6663398863122791 0  -0.6663398863122794 -0.6663398863122794 0  -0.6663398863122793 0.6663398863122795 0  0.6663398863122793 -0.6663398863122795 0  0.2883385204096159 -0.8240241488192156 0  -0.8 0 0  0.8 0 0  -0.2883385204096159 0.8240241488192156 0  0.2883385204096159 0.8240241488192156 0  -0.275 -1.1 0  -0.8137296345339549 0.3493292902542065 0  0.7691968053435165 -0.3403965171534225 0  -0.7691968053435165 -0.3403965171534224 0  0.8137296345339551 0.3493292902542064 0  -0.2705017153269808 -0.773049488531049 0  1.1 0.8250000000000001 0  0.8250000000000001 1.1 0  1.1 -0.8250000000000001 0  0.8250000000000001 -1.1 0  -1.1 0.8250000000000001 0  -0.8250000000000001 1.1 0  -0.8250000000000001 -1.1 0  -1.1 -0.8250000000000001 0  0 0.8113845792931161 0  0.007072477527379288 -0.8187738769332888 0  1.1 0.275 0  1.1 -0.275 0  -1.1 0.275 0  -0.275 1.1 0  0.275 -1.1 0  0.275 1.1 0  -1.1 -0.275 0  0.02816823497502773 -0.2499999999999999 0  -0.2374639560909118 -0.08309223200312943 0  0.25 -0.02816823497502778 0  -0.1778952633737171 0.1778952633737173 0  0.08309223200312948 0.2374639560909119 0  0.6875 0.9044521628094033 0  -0.9044521628094033 0.6875 0  0.8463389105089401 -0.8463389105089401 0  0.9044521628094033 0.6875 0  -0.8463389105089401 -0.8463389105089401 0  -0.767786457710924 0.8750783326923629 0  0.8677516869574191 -0.5506979707488757 0  -0.8677516869574192 -0.5506979707488756 0  -0.5050311643355169 -0.8555004540247985 0  -0.5701556468586396 -0.4567865287721606 0  0.6249950965330108 -0.8876837002882089 0  0.5701556468586395 -0.4567865287721607 0  0.3928657626645344 -0.6124864144470425 0  -0.592653592010189 0.4393117263502035 0  -0.4179614947106146 0.6138426574647371 0  -0.5292344651737774 0.8619935788915527 0  0.5926535920101891 0.4393117263502033 0  0.4248107255337702 0.6192605333809361 0  -0.4469834162493513 -0.6401729300299475 0  0.9006739696166555 0.9006739696166555 0  0.4798018989697899 0.9045243416864952 0  -0.9096531673941256 -0.1815147264791358 0  -0.9500000000000001 0 0  0.9500000000000001 0 0  0.6521320428699586 0.2281908711319545 0  -0.687773594604006 0.1793452688508528 0  0.1381474836556521 0.9550753510059677 0  -0.1375 0.9556922896465581 0  -0.1375 -0.9558400573365238 0  -0.6783448506972298 -0.9500094123501752 0  -0.9625000000000001 1.1 0  -1.1 0.9625000000000001 0  0.1452038542000676 -0.9554164009279873 0  0.875 -0.178378888693158 0  0.6793503582950227 -0.1556839898321528 0  0.1503116767474856 -0.6817816126977135 0  -0.1501232052114358 0.6818807752649215 0  0.224843964788616 0.6425671340716849 0  0.4403992229191585 -0.9418832717201049 0  -0.9255923214149538 0.1917223701372979 0  0.925592321414954 0.1917223701372979 0  -0.1654674019212394 -0.2633398615884157 0  0.2633398615884157 0.1654674019212394 0  0.2199174206378054 -0.2199174206378056 0  -0.6321077388721966 -0.2211840641163827 0  0.9496930499643419 -0.3840533576546167 0  -1.1 -0.4125 0  0.4892209988974057 -0.7667099924779079 0  -0.9622729494512566 -0.7061399025375782 0  1.1 -0.6875 0  -0.9625000000000001 -1.1 0  1.1 -0.9625000000000001 0  -0.07449011661556058 -0.6611180704222235 0  0.9201558410236723 0.5020324872420169 0  -0.7980259563196859 0.5347968030121897 0  -1.1 0.4125 0  -0.4125 1.1 0  -0.9404822608825543 0.89375 0  -0.9310348978548471 -0.392797243827761 0  -0.3451385467768902 -0.9355288124011237 0  0.7480397761709329 0.5143504158157237 0  -0.2824862267198052 -0.605330377080244 0  -0.9520915579684144 0.48125 0  0.5940338165669689 -0.295094959178099 0  -0.3171400979238754 0.07238515781857774 0  -0.07238515781857757 0.3171400979238754 0  -0.6875 1.1 0  0.7232332684232805 -0.4901806172551281 0  -0.7232332684232805 -0.4901806172551281 0  0.00338813553846288 0.655692289646558 0  -0.08845398977724174 -0.1280756351071957 0  0.11473577351878 -0.1051816471190254 0  0.1280756351071958 0.08845398977724203 0  -1.1 -0.9625000000000001 0  0.9625000000000001 -1.1 0  0.7921297170957761 0.7921297170957761 0  -0.3437500000000001 0.9650125732259328 0  0.5836124443421735 0.7936878997714175 0  0.65 0 0  -0.65 0 0  0.9664883964774059 -0.7562500000000001 0  -0.8124211746991734 -0.700257622122046 0  0.8170566656840113 -0.6956221311372082 0  0.963312045727999 0.3369953739214661 0  0.754216364371443 -0.9663173195149415 0  -0.9646845642933237 0.3341209191946947 0  0.4248945845939051 0.7671766797892229 0  0.1444746423966985 0.8107378728962151 0  1.1 -0.1375 0  -0.61875 0.9740926301799909 0  -0.4436314992969004 0.4648441946571232 0  0.446749005251518 0.4467490052515179 0  -0.6425762581319699 -0.809434358471983 0  -0.4237102526659775 -0.4914836457392125 0  0.3417556154465088 0.9649161802301053 0  1.1 0.9625000000000001 0  0.9625000000000001 1.1 0  -0.1346972861082186 -0.8140182440632158 0  0.004599123315319175 -0.9594136686545218 0  -0.7630020842896895 -0.1462286046077213 0  0.8937500000000002 -0.9780554058317621 0  -0.89375 -0.978055405831762 0  0.5307580899412138 -0.6335465795469118 0  -0.6735650381412928 0.3215315700647676 0  -0.2926124573178824 0.6815987298140569 0  0.2832002730267919 -0.9620860716296038 0  0.7808089105174282 0.1495688930967883 0  0.0003385874080656659 0.962016808709899 0  0.1396097490202794 -0.3341837278978841 0  -0.06174656588772961 -0.356871135866022 0  0.356871135866022 0.06174656588772962 0  0.3502422169756049 -0.1225550522669033 0  -0.3141898486624634 -0.1974185664662481 0  0.2104723163774097 0.2947389523832234 0  0.6875 -1.1 0  -0.4125 -1.1 0  1.1 -0.4125 0  1.1 0.1375 0  -1.1 0.1375 0  0.1375 -1.1 0  -0.6875 -1.1 0  -0.1375 -1.1 0  -0.1375 1.1 0  0.4125 -1.1 0  0.1375 1.1 0  -1.1 -0.1375 0  1.1 0.6875 0  -1.1 0.6875 0  0.6875 1.1 0  -1.1 -0.6875 0  1.1 0.4125 0  0.4125 1.1 0  -0.151176608331977 0.8191260725180923 0  0.1515495044630543 -0.8186697855688289 0  -0.526486564518479 0.7142024298560653 0  -0.5573848506159964 0.5762310871691408 0  0.720331182364698 -0.7909582169688955 0  0.9819791638121483 -0.622318971622832 0  -0.5246985929339253 -0.3296899772059645 0  0.3145426809485556 0.5426731239273453 0  -0.1846255388341355 0.04213957444465674 0  -0.0421395744446566 0.1846255388341357 0  0.4281875356850639 -0.4739192884886087 0  -0.4751434546088947 0.9830941382835867 0  -0.5218871269896868 0.327923416068668 0  0.5218871269896868 0.3279234160686678 0  -0.4014303854325054 0.7561410010683971 0  -0.4679926397922863 -0.9812422187131735 0  -0.3026615653521558 0.55036344815324 0  -0.5397081829995244 -0.7306642780966139 0  0.9911032692061623 -0.8937500000000002 0  -0.9763871746165429 -0.8739193086721466 0  0.254260682847422 -0.5864806602798783 0  -0.3643001290028616 -0.08087986416259899 0  -0.2060073154462889 0.3087931799966986 0  -0.3087931799966984 0.2060073154462891 0  0.05162583822629099 0.3675962661090195 0  -0.3863870983940469 -0.818198469145103 0  -0.7178509105469472 0.438636590802872 0  0.5248650937143274 0.544333731959085 0  0.5394102004945671 0.6744287826185811 0  0.9736442263428986 -0.2589551576123615 0  -0.6466016324836857 -0.3429461438153842 0  0.9882826862706525 -0.5001445473219641 0  -0.5692973074531109 0.1992057435931062 0  0.2679332586338489 -0.7057353379713655 0  0.97472163659182 0.7953658887002701 0  0.7953658887002701 0.97472163659182 0  -0.9858395265700997 0.7795544025957204 0  0.61875 1.002226081404702 0  -1.002226081404702 0.61875 0  1.002226081404702 0.61875 0  -0.7872795491246395 0.6557248622438615 0  0.7891733379062652 0.6344142792927272 0  -0.65214580987448 0.8022588499898194 0  -0.7374080037760796 0.9910247317792732 0  0.6858107639797646 0.3516178482725742 0  -0.8046606458159516 0.2243913597168291 0  -0.89375 1.00303902010377 0  0.04286108681466963 -0.6175947077223141 0  0.3212593971299798 0.7106672754906794 0  -0.6724373947869903 0.5480412062922982 0  0.6060749141796563 -0.7664549984213634 0  0.828899546032142 -0.4406615706566396 0  -0.9839844221761632 -0.5864783208180512 0  -0.8194224057691728 0.7691241460452193 0  0.6634571383747863 -0.387956122136344 0  0.6201350802686155 -0.56069693733135 0  -0.6285070347487245 -0.5568542402547564 0  0.4882373739369446 -0.3747481136125761 0  0.3811057632069687 -0.727045806314891 0  -0.8278834699170806 -0.4430880104260875 0  -0.875 0.08786676842428248 0  0.9801792185070523 -0.1176453979923067 0  -0.763389314798812 -0.5971032269598143 0  0.6706650544504121 0.1139123170284505 0  -0.2356231320439919 -0.8874537102254196 0  0.7577073913635143 -0.5985815095441068 0  0.8772193009776941 0.08814930188612236 0  -0.1918772948459984 -0.6831435764250359 0  0.6383102603939704 
[...]
<PointData  Vectors="f_151"> 
<DataArray  type="Float64"  Name="f_151"  NumberOfComponents="3" format="ascii">2.5875638582174243e-01 8.1452651901371784e-02 0.0000000000000000e+00  1.4525467463088776e-01 5.4378204701823842e-02 0.0000000000000000e+00  1.1892262716038569e-01 2.2181424419714713e-02 0.0000000000000000e+00  5.0427222500054401e-02 -1.0097161248150904e-01 0.0000000000000000e+00  -2.6421901195086320e-02 -2.9929450151489684e-01 0.0000000000000000e+00  3.5629989433508030e-01 -3.7016979101223679e-01 0.0000000000000000e+00  6.0494292692548246e-01 -1.9129539533112164e-01 0.0000000000000000e+00  5.9326648094507306e-01 -1.4125531578781389e-02 0.0000000000000000e+00  5.4558440885680826e-01 6.6944453968998965e-02 0.0000000000000000e+00  4.5662649773174130e-01 1.1064193221600434e-01 0.0000000000000000e+00  4.1248840003193632e-01 1.1415142358860139e-01 0.0000000000000000e+00  3.6496586487233046e-01 1.1105578815525038e-01 0.0000000000000000e+00  3.4406281587826093e-01 8.6122579072104716e-02 0.0000000000000000e+00  2.2186838174764334e-01 1.2535401247381642e-01 0.0000000000000000e+00  7.5184238795637015e-02 1.6889356649069073e-01 0.0000000000000000e+00  2.1206476804892099e-01 3.6163756582887993e-02 0.0000000000000000e+00  1.0964822133928277e-01 8.2945267290911139e-03 0.0000000000000000e+00  2.4495435617970179e-01 -8.7776948815529943e-02 0.0000000000000000e+00  1.2665475207698459e-01 -2.7339062441676887e-01 0.0000000000000000e+00  3.9782766732037805e-01 -3.7905001514081632e-01 0.0000000000000000e+00  6.0028826404156244e-01 -1.6488136801819209e-01 0.0000000000000000e+00  6.2407356379725976e-01 6.4412370537149473e-03 0.0000000000000000e+00  5.3204739211835228e-01 6.7835215020208492e-02 0.0000000000000000e+00  4.6464742265338971e-01 1.0300255141730504e-01 0.0000000000000000e+00  4.7144875125527108e-01 6.2511498896746912e-02 0.0000000000000000e+00  3.4365829419340316e-01 1.2570326664924419e-01 0.0000000000000000e+00  3.7169707279429881e-01 7.7191352025350782e-02 0.0000000000000000e+00  2.7169991625937273e-01 9.5590169206007575e-02 0.0000000000000000e+00  8.4051317095734657e-03 -7.4229630894960003e-03 0.0000000000000000e+00  -1.2258062293672786e-02 2.6552975360046700e-02 0.0000000000000000e+00  -1.1455979091732998e-02 2.6783571901656575e-02 0.0000000000000000e+00  8.1767182848603258e-03 -2.4313136552970134e-02 0.0000000000000000e+00  7.8302432873839332e-03 -2.3744381362215555e-02 0.0000000000000000e+00  7.5030516790997540e-03 -7.9070231603222199e-03 0.0000000000000000e+00  2.5435861700109968e-01 3.3986463418404118e-02 0.0000000000000000e+00  2.5408104622652439e-01 3.4769125698714688e-02 0.0000000000000000e+00  -7.9812683697551593e-04 -8.5828707794086273e-02 0.0000000000000000e+00  1.3849435843439237e-01 5.0465828411190537e-03 0.0000000000000000e+00  2.6653875138287252e-03 7.1145255703475893e-02 0.0000000000000000e+00  -9.6150029340075595e-04 -8.4919502330408320e-02 0.0000000000000000e+00  3.3645934403368810e-03 7.0469792176505563e-02 0.0000000000000000e+00  1.3505836208044142e-01 -1.6098063009242540e-02 0.0000000000000000e+00  1.3721659629311109e-01 6.9972658114163938e-04 0.0000000000000000e+00  1.3599880203540612e-01 -1.5607734010933058e-02 0.0000000000000000e+00  6.2516429598061773e-01 -1.1779921858424815e-01 0.0000000000000000e+00  5.4138417383102155e-02 -1.4429302200934463e-01 0.0000000000000000e+00  5.2979112751636907e-02 -1.4831693522329162e-01 0.0000000000000000e+00  6.4481364480010267e-02 1.0327556977116463e-01 0.0000000000000000e+00  6.6976025263651096e-02 9.3846299397911087e-02 0.0000000000000000e+00  1.9739693267673208e-01 1.0107973975940339e-01 0.0000000000000000e+00  -9.8222754779051596e-02 5.8052240158398390e-02 0.0000000000000000e+00  -9.5475427610645869e-02 6.2190502273368600e-02 0.0000000000000000e+00  2.0028924757539832e-01 9.8604092857177847e-02 0.0000000000000000e+00  2.6579645449263756e-01 -7.0904495815328983e-02 0.0000000000000000e+00  2.1065146236035234e-01 7.2856366396030214e-03 0.0000000000000000e+00  -1.2023618437348317e-02 1.0646755867268776e-01 0.0000000000000000e+00  -1.8710299622146306e-02 1.2298127619979694e-01 0.0000000000000000e+00  -8.9614465249900577e-02 -1.0461679667714095e-01 0.0000000000000000e+00  -6.7426162508209903e-02 -8.5775610348049591e-02 0.0000000000000000e+00  2.8705049699777269e-01 -8.9374925789609108e-02 0.0000000000000000e+00  2.5254759918757661e-03 -6.8188124021176952e-02 0.0000000000000000e+00  6.2198219030796219e-02 -2.0605246242729539e-02 0.0000000000000000e+00  5.3966443548692875e-03 3.8041803766214910e-02 0.0000000000000000e+00  5.9977701857823092e-02 -3.8001539239021784e-03 0.0000000000000000e+00  7.0845642722777514e-03 3.7327511166544397e-02 0.0000000000000000e+00  5.7501605907265045e-02 -6.9967279195543844e-03 0.0000000000000000e+00  5.6468950114355029e-02 -2.6265565531886133e-02 0.0000000000000000e+00  3.9778919516817706e-03 -6.5639195869556605e-02 0.0000000000000000e+00  2.9661401133892001e-01 6.4004686034044231e-02 0.0000000000000000e+00  2.9894914820854351e-01 6.1363729476490783e-02 0.0000000000000000e+00  -3.1243878806677663e-03 -4.5987982489901283e-02 0.0000000000000000e+00  -1.6509216838350568e-03 7.2506681811782228e-02 0.0000000000000000e+00  -1.1838421259441631e-03 7.4391247847201858e-02 0.0000000000000000e+00  2.1567236357266467e-01 2.7145666113715092e-02 0.0000000000000000e+00  2.1674348282901990e-01 2.4924423940346066e-02 0.0000000000000000e+00  2.1876302083422861e-01 1.3292561132240638e-02 0.0000000000000000e+00  -5.1058207076821070e-03 -4.2146461178475210e-02 0.0000000000000000e+00  6.2678954232402595e-01 -1.1877957110228606e-01 0.0000000000000000e+00  6.2566426358294880e-01 -1.1787067712875567e-01 0.0000000000000000e+00  6.2244537758805274e-01 -1.1760727764248914e-01 0.0000000000000000e+00  6.2383554820812770e-01 -1.1732146802543787e-01 0.0000000000000000e+00  6.2303041379190527e-01 -1.1535284281068424e-01 0.0000000000000000e+00  9.3136883482245150e-02 -7.1436897181228892e-02 0.0000000000000000e+00  2.8428810333107849e-02 6.4785082187807277e-02 0.0000000000000000e+00  4.6406858435944900e-02 4.2360756199510255e-02 0.0000000000000000e+00  1.9840717018447709e-02 -9.2276961981198294e-02 0.0000000000000000e+00  4.8989323603801933e-02 -7.3784739488458762e-02 0.0000000000000000e+00  6.7283828090178119e-02 4.4086979155428072e-02 0.0000000000000000e+00  1.9067047513913547e-02 8.9859827908003814e-02 0.0000000000000000e+00  -6.2042651285856695e-03 -1.0966799093323921e-01 0.0000000000000000e+00  1.5810221205171282e-01 -9.5901389344466723e-02 0.0000000000000000e+00  -5.0622983327891613e-02 -2.5518557157440847e-01 0.0000000000000000e+00  1.0817074254899402e-01 4.6930473961239755e-02 0.0000000000000000e+00  2.8364578865289109e-02 1.7734863148899149e-01 0.0000000000000000e+00  1.4512547780446519e-01 1.7073047819513590e-01 0.0000000000000000e+00  2.7411389689713989e-02 1.7755421503246799e-01 0.0000000000000000e+00  1.2991123353872025e-01 1.7553851606109680e-01 0.0000000000000000e+00  1.2453455422019201e-01 6.7389468535879071e-02 0.0000000000000000e+00  -7.2513471735438026e-02 -2.2558712666060321e-01 0.0000000000000000e+00  2.0728992457273529e-01 -2.4545013946883959e-01 0.0000000000000000e+00  1.9163041712967874e-01 -2.2342600612529157e-01 0.0000000000000000e+00  3.0331079931217992e-02 -5.8193662499905215e-02 0.0000000000000000e+00  1.6835706257058722e-01 -6.7358325893626031e-02 0.0000000000000000e+00  -5.6028121242865506e-02 -2.3509098336645610e-02 0.0000000000000000e+00  -4.7062189430193260e-02 3.4290774139410236e-02 0.0000000000000000e+00  -4.8493458708970504e-02 3.3004964753439260e-02 0.0000000000000000e+00  -1.8774914578623694e-01 -5.4214705548370198e-02 0.0000000000000000e+00  -8.6948096286841151e-02 1.4393943358054878e-01 0.0000000000000000e+00  2.6380200767924372e-01 1.4150386951769681e-02 0.0000000000000000e+00  2.4149269736423140e-01 5.5670937830409647e-02 0.0000000000000000e+00  2.6398115311403336e-01 8.1185807777927714e-03 0.0000000000000000e+00  9.9965571519465571e-02 -5.4023729357247668e-02 0.0000000000000000e+00  3.0606890207655321e-02 -1.1466738222834236e-02 0.0000000000000000e+00  7.3257486056070116e-03 1.6015630279400301e-02 0.0000000000000000e+00  2.4173347210930007e-01 5.2964521068225835e-02 0.0000000000000000e+00  -4.1955513114886600e-02 8.4321253029191814e-02 0.0000000000000000e+00  -8.6112552887048943e-02 1.4636153727535606e-01 0.0000000000000000e+00  2.5736430949268352e-01 1.6530907177338447e-01 0.0000000000000000e+00  2.6546245138967278e-01 1.6091908355881254e-01 0.0000000000000000e+00  3.7647297029524196e-01 -1.0229209871029143e-01 0.0000000000000000e+00  1.5646787899366593e-01 5.0147295095061051e-02 0.0000000000000000e+00  -2.6108952855261752e-02 7.6293537048963772e-02 0.0000000000000000e+00  -5.1001400526178894e-02 -2.2796777421282773e-02 0.0000000000000000e+00  6.1104926572270635e-01 -1.3211195253885682e-01 0.0000000000000000e+00  5.8397032298333917e-01 -1.2149406770128537e-01 0.0000000000000000e+00  5.9850700692956382e-01 -9.7186444642834310e-02 0.0000000000000000e+00  -1.8266848009615586e-01 -5.5561503745166378e-02 0.0000000000000000e+00  -5.1252317498155509e-03 8.6146333905660011e-02 0.0000000000000000e+00  -2.5998289437021058e-03 -7.2415166239429715e-02 0.0000000000000000e+00  1.2793785333889643e-01 1.0007954711345687e-01 0.0000000000000000e+00  1.1858285859946100e-02 -8.7430933297311442e-02 0.0000000000000000e+00  4.3200508089586342e-03 5.8247428872543729e-02 0.0000000000000000e+00  3.2146062903883763e-02 -2.5717761154911756e-02 0.0000000000000000e+00  9.3973633628928188e-03 1.5332286229239375e-02 0.0000000000000000e+00  3.8690419784976193e-01 4.2684073205113422e-02 0.0000000000000000e+00  -1.4838797970846021e-02 -9.3826497099603376e-02 0.0000000000000000e+00  2.6391944894970997e-02 9.6313885170689242e-02 0.0000000000000000e+00  4.0458746298393790e-04 7.7326675473673417e-02 0.0000000000000000e+00  1.7868408826803245e-01 1.4463493938303748e-02 0.0000000000000000e+00  3.2934974636692843e-02 2.7254897855680839e-02 0.0000000000000000e+00  -2.8386453721456425e-02 -7.9554384586572144e-02 0.0000000000000000e+00  2.2326961635240150e-01 -3.0622053976576618e-02 0.0000000000000000e+00  -1.5951692286202024e-02 -1.4497669218006021e-01 0.0000000000000000e+00  3.7451266284352347e-01 -2.2338807794224877e-01 0.0000000000000000e+00  7.1226035645494228e-03 8.4731707646758025e-02 0.0000000000000000e+00  -1.1636598764024801e-02 1.7626607777002606e-01 0.0000000000000000e+00  5.8626131902062129e-01 -9.7498404303288752e-02 0.0000000000000000e+00  6.1224376958904581e-01 -9.5172587455378613e-02 0.0000000000000000e+00  9.1555919166114400e-02 -1.1928138556998175e-02 0.0000000000000000e+00  2.0110937383043079e-02 1.2225475215660511e-01 0.0000000000000000e+00  -2.7209755820172755e-02 -1.5658392423052567e-01 0.0000000000000000e+00  3.8286218766449259e-01 9.3179726803913746e-02 0.0000000000000000e+00  6.2522868457215186e-01 -1.1775592418909464e-01 0.0000000000000000e+00  6.2478296813426226e-01 -1.1771558469840257e-01 0.0000000000000000e+00  6.2483116033570352e-01 -1.1731183751644075e-01 0.0000000000000000e+00  8.0621595867069306e-03 -4.6200513046898616e-02 0.0000000000000000e+00  3.1133071030080964e-02 -5.1203174514243910e-03 0.0000000000000000e+00  5.0779619141476620e-02 -9.1046811016516821e-02 0.0000000000000000e+00  1.9549742383786081e-01 5.3252650475341001e-02 0.0000000000000000e+00  1.1743143560233699e-01 -1.0836251555061793e-01 0.0000000000000000e+00  -1.2936854201958489e-01 9.6400678505229973e-02 0.0000000000000000e+00  -1.2672915198963672e-01 1.0794699428858257e-01 0.0000000000000000e+00  2.3804348255220115e-02 5.1123494884020598e-02 0.0000000000000000e+00  3.6233194443302974e-02 -1.0551908155344189e-01 0.0000000000000000e+00  4.2410645689358380e-02 7.4711907162779478e-02 0.0000000000000000e+00  -3.0079058380078117e-02 -6.3612057385012064e-02 0.0000000000000000e+00  7.8930527666534023e-02 2.3561276067578046e-02 0.0000000000000000e+00  -6.5109184845848038e-03 8.5502136091158240e-02 0.0000000000000000e+00  2.1266580554945189e-01 -1.3149573864168121e-01 0.0000000000000000e+00  3.1417077204723437e-01 7.0771690656778064e-04 0.0000000000000000e+00  -5.4540487010348105e-03 5.3978637380304915e-02 0.0000000000000000e+00  1.1233693512744090e-01 2.8017573800213191e-02 0.0000000000000000e+00  9.8073931739951603e-02 2.1483576767320045e-01 0.0000000000000000e+00  5.2351511263883828e-02 -3.8190507532276291e-01 0.0000000000000000e+00  1.0027851691698070e-01 -1.0297906717806057e-01 0.0000000000000000e+00  1.5446698495253638e-01 -3.4988019058583641e-01 0.0000000000000000e+00  2.2125521921014252e-01 -3.4384335458815800e-02 0.0000000000000000e+00  4.2178861786611350e-03 -4.6420194235714592e-02 0.0000000000000000e+00  3.0259501738870702e-02 -2.1918724240604391e-02 0.0000000000000000e+00  3.2164078988912037e-01 3.4445871282285925e-03 0.0000000000000000e+00  2.6602153396770400e-01 3.5435043396897556e-02 0.0000000000000000e+00  -1.3202001781448372e-01 -7.9531138618595433e-03 0.0000000000000000e+00  4.4704373395794590e-02 1.5820715304471138e-02 0.0000000000000000e+00  4.0976199006676706e-02 -4.3455539890518716e-02 0.0000000000000000e+00  9.1666250051067655e-02 1.4010627461239719e-01 0.0000000000000000e+00  -3.2265042320011442e-02 1.6807344010885514e-01 0.0000000000000000e+00  1.9496529565008194e-01 1.6108862562053694e-01 0.0000000000000000e+00  2.0503247211909853e-01 5.4022106118175109e-02 0.0000000000000000e+00  -1.2555363749011045e-01 -1.5058304431924055e-02 0.0000000000000000e+00  2.6012933354253281e-01 3.9429367050798088e-02 0.0000000000000000e+00  5.9318322369064025e-01 -7.8839751533232777e-02 0.0000000000000000e+00  6.2309258030525860e-01 -1.1019154040006496e-01 0.0000000000000000e+00  5.6200228211740855e-01 -1.0834963066918213e-01 0.0000000000000000e+00  5.6824314955166555e-01 -8.6016485792435829e-02 0.0000000000000000e+00  5.7126624802828307e-01 -1.2596330460584740e-01 0.0000000000000000e+00  6.1224941308885727e-01 -1.2745060642649186e-01 0.0000000000000000e+00  9.2753138771816845e-02 -3.5184815605964585e-03 0.0000000000000000e+00  1.7680167666164123e-01 -7.9269090911245673e-03 0.0000000000000000e+00  -3.0936129429127610e-04 7.7985710678132425e-02 0.0000000000000000e+00  -7.4734823829534537e-03 -1.2830286161170249e-02 0.0000000000000000e+00  -5.4793702101760770e-03 5.9107955210727176e-02 0.0000000000000000e+00  2.4213914336483344e-01 3.0211776067866705e-02 0.0000000000000000e+00  9.6844560367602112e-02 -1.8155719991725303e-02 0.0000000000000000e+00  2.4488239394817107e-01 2.6322001627006250e-02 0.0000000000000000e+00  2.4309340155425024e-01 3.2832906956535006e-02 0.0000000000000000e+00  1.7489392551211497e-01 1.0024301139251479e-02 0.0000000000000000e+00  2.4237201737347822e-01 2.4531636707845601e-02 0.0000000000000000e+00  -1.0858261002866422e-02 -1.2633279323532091e-02 0.0000000000000000e+00  1.8362133853236310e-03 -8.3059259102459454e-02 0.0000000000000000e+00  4.8887320016419685e-03 5.9912810012386290e-02 0.0000000000000000e+00  9.4316866560240270e-02 -1.9054383709242530e-02 0.0000000000000000e+00  1.7298979373747824e-03 -8.1280592886857711e-02 0.0000000000000000e+00  -5.6198983761320881e-03 -6.9132154815112187e-02 0.0000000000000000e+00  1.7679879288052006e-01 -9.1683147852458236e-03 0.0000000000000000e+00  2.4839369101762135e-01 9.7222024564803833e-02 0.0000000000000000e+00  2.5131258951844843e-01 9.5420175113680131e-02 0.0000000000000000e+00  1.1068878548177213e-01 1.1068746845952880e-01 0.0000000000000000e+00  7.8255173173190709e-02 1.4811324852107305e-01 0.0000000000000000e+00  7.2843947151356003e-02 6.4784109930132047e-02 0.0000000000000000e+00  1.3364617242560925e-02 6.7496102897203286e-02 0.0000000000000000e+00  -1.6578806314975608e-01 -2.3493266455944908e-01 0.0000000000000000e+00  3.9290638666951960e-01 -2.6075326798985343e-01 0.0000000000000000e+00  6.2427168667830346e-01 -1.1770839891873011e-01 0.0000000000000000e+00  6.2601245674885631e-01 -1.1762131942939021e-01 0.0000000000000000e+00  9.5145070686571909e-02 2.1649638729059109e-01 0.0000000000000000e+00  1.5273426992952460e-01 2.7521688728939054e-02 0.0000000000000000e+00  -3.2897021294286691e-02 2.4239195259167948e-01 0.0000000000000000e+00  -1.6012127928123829e-01 -2.1641525728603309e-01 0.0000000000000000e+00  1.5337350906362948e-01 1.1589162590755477e-01 0.0000000000000000e+00  1.6457136472727849e-01 -4.4822273135963056e-02 0.0000000000000000e+00  1.9654244848801430e-01 2.1997618167789046e-01 0.0000000000000000e+00  1.3326646023873320e-01 -1.5136064410597158e-01 0.0000000000000000e+00  2.3433723059751357e-02 2.9657827130780346e-02 0.0000000000000000e+00  2.2335764970489957e-02 -6.2051952926603635e-02 0.0000000000000000e+00  2.2707431422593294e-01 1.9823066122134020e-01 0.0000000000000000e+00  5.6554839437010052e-01 -1.0374508310612067e-01 0.0000000000000000e+00  5.9328070391104326e-01 -8.3069289656847650e-02 0.0000000000000000e+00  5.6363243383813855e-01 -8.1804156599564901e-02 0.0000000000000000e+00  6.1744866419704958e-01 -9.2913568028865690e-02 0.0000000000000000e+00  2.2900604874506486e-01 -1.0176107667629762e-01 0.0000000000000000e+00  1.1246615777902572e-02 1.2840039697692057e-01 0.0000000000000000e+00  7.8894143856439475e-02 -2.5274771990717465e-01 0.0000000000000000e+00  1.2842096642046608e-01 -1.8019514694635960e-01 0.0000000000000000e+00  -1.4709180989113802e-02 7.5767262981230779e-02 0.0000000000000000e+00  -1.2679006058066691e-01 -1.5893241351969992e-01 0.0000000000000000e+00  4.8770408721474671e-03 7.9519336739836313e-02 0.0000000000000000e+00  -2.3863045767097743e-01 3.0640747934655505e-01 0.0000000000000000e+00  2.0725701265324795e-01 1.5659413163743616e-01 0.0000000000000000e+00  2.0394527427776261e-02 -7.2015813769542678e-02 0.0000000000000000e+00  6.4774565492739106e-02 -5.3009771369329710e-02 0.0000000000000000e+00  1.6540693589498973e-02 4.7344607587589321e-02 0.0000000000000000e+00  1.1898616423428054e-01 -3.8417694986323934e-02 0.0000000000000000e+00  1.0497827322999049e-02 6.9734796992838771e-02 0.0000000000000000e+00  1.3118521701055272e-03 -8.7354995616620565e-02 0.0000000000000000e+00  4.5040828264542886e-02 8.1996927540442660e-02 0.0000000000000000e+00  2.0713180400011046e-02 -1.2057718817215103e-01 0.0000000000000000e+00  8.5174536909785367e-02 6.9491934757129115e-02 0.0000000000000000e+00  7.5447589356371483e-02 1.8653777127962078e-02 0.0000000000000000e+00  -1.0670081719214257e-01 -1.3081053545363133e-01 0.0000000000000000e+00  -3.6550213580902470e-02 9.8735717902711351e-02 0.0000000000000000e+00  4.1974648090945768e-02 3.6474984428482666e-03 0.0000000000000000e+00  3.5967394084878979e-01 1.6328178419218300e-01 0.0000000000000000e+00  2.9114589937858709e-01 -1.2505095903812538e-01 0.0000000000000000e+00  4.4052695123996281e-02 1.2229800306090322e-01 0.0000000000000000e+00  1.0122770059531609e-01 9.0031046577585913e-02 0.0000000000000000e+00  1.2178693888734139e-02 1.0309671692556459e-01 0.0000000000000000e+00  1.2025950381923465e-03 -8.9382832297646528e-02 0.0000000000000000e+00  4.6199170356460657e-02 6.1266858744203026e-02 0.0000000000000000e+00  8.2801541861211615e-03 1.6116505028534828e-01 0.0000000000000000e+00  6.3008982972986155e-02 1.4409776247770059e-01 0.0000000000000000e+00  3.4988506343812363e-02 -1.9434891182879693e-01 0.0000000000000000e+00  4.9240056104118426e-02 2.2120620588612641e-01 0.0000000000000000e+00  1.6371020693759600e-01 1.3187707275078869e-01 0.0000000000000000e+00  -3.6914020516407853e-02 -1.0765118540829645e-01 0.0000000000000000e+00  -5.5436242287028654e-02 6.5804085051830136e-02 0.0000000000000000e+00  -2.7921281977078365e-02 5.9543631933772788e-02 0.0000000000000000e+00  2.3080860615738531e-02 -1.3854470829782514e-01 0.0000000000000000e+00  -1.6604605950741105e-01 1.4785675613889708e-02 0.0000000000000000e+00  2.5770902708658211e-01 -2.7015385620075830e-02 0.0000000000000000e+00  4.5644234281072990e-02 1.0033251155061317e-01 0.0000000000000000e+00  -7.2928594555983592e-02 8.1918233644110040e-03 0.0000000000000000e+00  3.9308657144416154e-01 -4.