<?xml version="1.0"?>
<VTKFile type="UnstructuredGrid"  version="0.1"  >
<UnstructuredGrid>
<Piece  NumberOfPoints="657" NumberOfCells="1224">
<Points>
<DataArray  type="Float64"  NumberOfComponents="3"  format="ascii">0.3 0.5 0  0.3097886967409692 0.4381966011250106 0  0.3381966011250105 0.3824429495415054 0  0.3824429495415054 0.3381966011250105 0  0.4381966011250105 0.3097886967409693 0  0.4999999999999999 0.3 0  0.5618033988749894 0.3097886967409693 0  0.6175570504584946 0.3381966011250105 0  0.6618033988749895 0.3824429495415053 0  0.6902113032590307 0.4381966011250105 0  0.7 0.5 0  0.6902113032590307 0.5618033988749895 0  0.6618033988749895 0.6175570504584946 0  0.6175570504584946 0.6618033988749895 0  0.5618033988749895 0.6902113032590307 0  0.5 0.7 0  0.4381966011250105 0.6902113032590307 0  0.3824429495415054 0.6618033988749895 0  0.3381966011250105 0.6175570504584946 0  0.3097886967409693 0.5618033988749895 0  0 1 0  0 0 0  1 0 0  1 1 0  0 0.5 0  0.5 0 0  1 0.5 0  0.5 1 0  0.75 0 0  0 0.25 0  1 0.75 0  0.75 1 0  0 0.75 0  0.25 1 0  0.25 0 0  1 0.25 0  0.5 0.5 0  0.2105003185409219 0.7894996814590781 0  0.7894996814590781 0.7894996814590781 0  0.2105003185409219 0.2105003185409219 0  0.789499681459078 0.2105003185409218 0  0.8675880167489374 0.375 0  0.625 0.8675880167489375 0  0.375 0.8675880167489375 0  0.1324119832510625 0.375 0  0.1367509911404222 0.621845030922803 0  0.8632490088595778 0.621845030922803 0  0.375 0.1324119832510625 0  0.6218450309228029 0.1367509911404222 0  1 0.125 0  0 0.875 0  0.125 0 0  1 0.875 0  0.875 0 0  0.125 1 0  0 0.125 0  0.875 1 0  0.375 0 0  1 0.625 0  0 0.625 0  0 0.375 0  0.5 0.8304113032834708 0  0.375 1 0  1 0.375 0  0.625 1 0  0.625 0 0  0.8761044122120449 0.4986103507265554 0  0.123895587787955 0.4986103507265554 0  0.4977780315167347 0.1712460112775354 0  0.8766966028666419 0.1233033971333581 0  0.876696602866642 0.876696602866642 0  0.1233033971333581 0.1233033971333581 0  0.09722823471845705 0.8125 0  0.1733635299290668 0.8970298609343814 0  0.8883491573041669 0.2643604571298573 0  0.8877958670922373 0.7326909680575229 0  0.1116508426958331 0.2643604571298573 0  0.7613054857070953 0.6770493230453046 0  0.6801259625863837 0.7571628005276329 0  0.7356395428701427 0.888349157304167 0  0.2870434624077082 0.7129565375922918 0  0.3239985581927791 0.2372835455990147 0  0.2643604571298573 0.1116508426958331 0  0.2372835455990147 0.3239985581927791 0  0.6770493230453046 0.2386945142929046 0  0.7627164544009852 0.323998558192779 0  0.7711783825050014 0.1049820981792812 0  0.2725459373371585 0.8711057510810419 0  0.5902113032590306 0.454035045157464 0  0.4 0.4841615559675463 0  0.5459649548425359 0.5902113032590307 0  0.4841615559675464 0.4 0  0.4364779946989695 0.5774553594345984 0  0.2094424738910378 0.5519742590219945 0  0.7884181597983735 0.545680948819098 0  0.7916309486261984 0.4423317750547929 0  0.2083690513738015 0.4423317750547928 0  0.1377152297367089 0.7214689337962261 0  0.3724220643060122 0.7667231914689607 0  0.5821571881989221 0.7829059068083607 0  0.4157539744496038 0.2170689396784469 0  0.5409524695020753 0.08616879159791818 0  0.5869360019724826 0.2215737033170064 0  0.4375 0.06620599162553127 0  0.5625 0.9337940083744687 0  0.4375 0.9337940083744687 0  0.6875 0.06723557102406837 0  0.2499395531834296 0.6316475649598042 0  0.9329302355459781 0.5668260734891706 0  0.06265660559348843 0.5625 0  0.9374766554583732 0.1875 0  0.1894585036512832 0.06453574456537571 0  0.06252334454162672 0.1875 0  0.8125 0.9374766554583732 0  0.9335159931895802 0.8086454127293836 0  0.08270718345412739 0.9172928165458726 0  1 0.4375 0  0.06620599162553126 0.4325371516276663 0  1 0.0625 0  0.0625 0 0  1 0.9375 0  0.06950343228460416 0.6723125235289175 0  0.3259857443889777 0.9337940083744687 0  0.7191746565244586 0.1683612776169283 0  0.2959339285794472 0.7935106260719075 0  0.9337940083744687 0.3301556823592318 0  0.3301556823592318 0.06620599162553127 0  0 0.3125 0  0.6698443176407682 0.9337940083744687 0  1 0.6875 0  0.4514179745184504 0.7681051994377992 0  0.9261600466505266 0.6660542894209697 0  0.2113067790653084 0.6983972891707992 0  0.8329491079070062 0.06224197342045822 0  0.6270583450435558 0.5201240648682854 0  0.4090362681283625 0.4090362681283625 0  0.5584023109229439 0.3853790110368519 0  0.9337940083744687 0.40625 0  0.07324623209099684 0.3288346047584531 0  0.3117551325404598 0.3117551325404598 0  0.8606467817412834 0.8055495025844367 0  0.6887443676947973 0.3126175950250973 0  0.7219615695492797 0.8167983050609489 0  0.8044516102100703 0.8617446741156497 0  0.1955261002843203 0.1379855058936445 0  0.1382553258843503 0.1955483897899297 0  0.864964129168482 0.1952824344718249 0  0.6890214694923545 0.6849900613410141 0  0.07036689372544221 0.7430195323441813 0  0.0610081267855168 0.07737906339275839 0  0.9226209366072415 0.06100812678551683 0  0.9375 1 0  0.2769867164855473 0.1826286472882077 0  0.1826286472882077 0.2769867164855473 0  0.8336942589933599 0.3113722988370891 0  0.8165996045639076 0.7229453499905518 0  0.4789032256944331 0.6331997907265303 0  0.928027627674455 0.928027627674455 0  0.6085539635780088 0.06803246462744715 0  0.7296616695371484 0.6170184654025564 0  0.2570921642211675 0.391537965092241 0  0.7429078357788326 0.391537965092241 0  0.7967102471178457 0.6123765304114542 0  0.5180602829388616 0.7642633874835528 0  0.2605767917084533 0.935431101588229 0  0.4426530087494659 0.8663257233940648 0  0.5031078702410127 0.8991159764650329 0  0.5635397733757957 0.8455036094012084 0  0.8168487399850823 0.1514019688168524 0  0.4801118462335195 0.235947052134749 0  0.4422512243961134 0.1332949828068699 0  0.5582688350300581 0.1484499412576641 0  0.5631529582154746 0.5124373560804079 0  0.1875 1 0  0.5625 0 0  0.3758834624346626 0.5473695252176364 0  0.6201733571084056 0.728293357425974 0  0.1950773621842676 0.3808166238455825 0  0.8038509890131255 0.3727374335763936 0  0.3798245843953486 0.2723323079875399 0  0.3125 0 0  1 0.3125 0  0.3125 1 0  0 0.9375 0  0.0625 1 0  1 0.8125 0  0 0.0625 0  0 0.1875 0  0.1875 0 0  0 0.5625 0  1 0.5625 0  0.6875 0 0  0.5625 1 0  0.4375 0 0  0 0.6875 0  0 0.8125 0  0.4375 1 0  1 0.1875 0  0.9375 0 0  0.8125 1 0  0 0.4375 0  0.8125 0 0  0.6875 1 0  0.9383440106555624 0.4732890453401784 0  0.8791303119139933 0.4363033221287315 0  0.1444512392930752 0.4379280227669263 0  0.06189415953695235 0.4945233499658612 0  0.1248307221083853 0.5608006559079415 0  0.8712917337729439 0.5603961643023064 0  0.6407130145563045 0.8064597233868442 0  0.9383956201930237 0.1207127300642634 0  0.1207127300642633 0.06160437980697626 0  0.2589714101778302 0.2589714101778302 0  0.4078810002027404 0.816282277059075 0  0.7335249541862354 0.2676464048005259 0  0.6236058768898869 0.2742769421274192 0  0.9361408778885455 0.8685833526525515 0  0.4523525636314596 0.4523525636314595 0  0.6091901890897117 0.5814075483590176 0  0.5305915372667812 0.4399607275806628 0  0.5368453594947724 0.2534456153880644 0  0.3368402664019491 0.1786913967232755 0  0.744354233684597 0.7410591217693031 0  0.6611460963325321 0.1813875727929229 0  0.8709807539684135 0.9415177409946952 0  0.1498845354982922 0.7814003916947225 0  0.1733259959143493 0.836838999098676 0  0.05949285952355048 0.8606735343455083 0  0.1196068565289332 0.8688958966991523 0  0.135882263395587 0.9422683540518523 0  0.1919679605442172 0.6426499327468673 0  0.8705109648256253 0.6783777913701057 0  0.9468331640430347 0.7223181349612111 0  0.946207936410807 0.2729893428020777 0  0.8354739380462149 0.2437630538914766 0  0.05740455559202427 0.2449026480192579 0  0.2463288041624848 0.05722112433740233 0  0.1389879594562489 0.3164983892719563 0  0.6802253176315923 0.8784719469268172 0  0.3197746823684077 0.1215280530731828 0  0.7270106571979222 0.946207936410807 0  0.3817428721944889 0.9437617040393581 0  0.4940138351881455 0.5598659120845905 0  0.06856169557878872 0.1323460221472362 0  0.0801981653187417 0.6165259933000324 0  0.1840705688005779 0.497396158704967 0  0.2422269262370963 0.4901657125075955 0  0.4946809509997099 0.1161807725421632 0  0.8160340485213248 0.6673703758264659 0  0.3229013559247006 0.843961150301146 0  0.7908640760641007 0.2764168336323853 0  0.7400356238292002 0.4619820920618612 0  0.2994295066106727 0.6581840436017291 0  0.3476318655993375 0.7114170370992797 0  0.254823922436606 0.7572801414879758 0  0.6161721588203841 0.9218580533667167 0  0.3838278411796159 0.07814194663328336 0  0.7780881100436 0.0489609348891321 0  0.3879773959447154 0.5990749599060994 0  0.7169705693158767 0.1135282121040537 0  0.4931036824297292 0.05609343994759985 0  0.2274028438539146 0.8410384589384519 0  0.05408606199325359 0.3796240941263634 0  0.1881791289058503 0.9474513174675495 0  0.654022783080669 0.4756051877045407 0  0.3610540400670985 0.4292034973097535 0  0.6106412769967681 0.4028729232792426 0  0.4292034973097534 0.3610540400670986 0  0.5243948122954591 0.3459772169193308 0  0.8176163584994709 0.494864101165278 0  0.1849053862157354 0.7430880371282902 0  0.2260006807635306 0.8957212194109766 0  0.5420241024555369 0.1969996312596072 0  0.8847424846773513 0.3154436134616551 0  0.3515522671730837 0.5018814071990108 0  0.4480669427956278 0.5042856208358317 0  0.5830020904061716 0.6247662633113538 0  0.5322072330140406 0.6444688164154293 0  0.4875733762956197 0.9491272980082162 0  0.4124933394834932 0.7346430813255372 0  0.2575836067360823 0.5776334086835068 0  0.1699825935391366 0.5836697869668019 0  0.4285287510606963 0.6402702240098512 0  0.7382464110532274 0.2162843507092721 0  0.2591562040152702 0.4422831813643485 0  0.1495555219004876 0.671537716356194 0  0.7414714852867809 0.5668796316264791 0  0.7496879295227002 0.5122358391284064 0  0.9475925750094287 0.6176715301748821 0  0.7689174383934929 0.1650980703578741 0  0.03862971350534853 0.78125 0  0.1876658619911977 0.3264067571242918 0  0.8336249883692137 0.4138354638226396 0  0.6712873365058349 0.1328385902064521 0  0.3252603682066182 0.7546537
[...]
<PointData  Vectors="f_66"> 
<DataArray  type="Float64"  Name="f_66"  NumberOfComponents="3" format="ascii">1.6738805479817733e-02 -8.4707195835162681e-04 0.0000000000000000e+00  6.6401677483005793e-03 -1.3785520400205195e-01 0.0000000000000000e+00  1.3774963309666610e-01 -2.4463362532006022e-01 0.0000000000000000e+00  2.7247370397497495e-01 -1.8359341095933224e-01 0.0000000000000000e+00  4.0383983584227579e-01 -1.1449213787137116e-01 0.0000000000000000e+00  4.4983017117607971e-01 5.1125711717464758e-04 0.0000000000000000e+00  3.8668287603437329e-01 1.2226713904775960e-01 0.0000000000000000e+00  2.1979426123596738e-01 2.8750747701275642e-01 0.0000000000000000e+00  -1.1992123015136092e-02 3.1790450258992092e-01 0.0000000000000000e+00  3.5147992979102441e-02 9.6836697729799956e-02 0.0000000000000000e+00  -6.9259062190937137e-02 3.0405655635633393e-02 0.0000000000000000e+00  2.6966858560470357e-02 -1.3585093639348386e-01 0.0000000000000000e+00  6.6507174435582031e-02 -2.9025516426731285e-01 0.0000000000000000e+00  3.1258955508302189e-01 -2.0939087647388197e-01 0.0000000000000000e+00  4.2634423176760505e-01 -1.2157660744080630e-01 0.0000000000000000e+00  4.3738913214237218e-01 2.6477053354506157e-02 0.0000000000000000e+00  3.7724123512250402e-01 1.5676914018519644e-01 0.0000000000000000e+00  3.1656633802911788e-01 1.6280423541104258e-01 0.0000000000000000e+00  1.0416553000754608e-01 2.2562265777485424e-01 0.0000000000000000e+00  -1.3720254379737384e-01 1.6453742789523465e-01 0.0000000000000000e+00  -6.0550738127896839e-02 -2.1968708971643481e-04 0.0000000000000000e+00  -6.1036500997261434e-02 -3.6425572402332427e-04 0.0000000000000000e+00  -6.1281321077848901e-02 -4.5759097967109882e-05 0.0000000000000000e+00  -6.2347612891091288e-02 -3.5518999563104029e-04 0.0000000000000000e+00  -1.9790605600610742e-01 1.2817863218321090e-03 0.0000000000000000e+00  7.3782576436652758e-02 -2.9222758876402673e-04 0.0000000000000000e+00  -1.9682548949664105e-01 8.6437720853313905e-04 0.0000000000000000e+00  7.3643287089282250e-02 -2.7356882725971203e-04 0.0000000000000000e+00  -6.5240846913518051e-03 8.8231169553948420e-03 0.0000000000000000e+00  -1.1868827052941359e-01 -1.9707644131176272e-03 0.0000000000000000e+00  -1.2218367866127267e-01 2.2970252505298886e-04 0.0000000000000000e+00  -4.0355534138798574e-03 -1.1438773427620119e-02 0.0000000000000000e+00  -1.1711808715444270e-01 9.3352373674668971e-04 0.0000000000000000e+00  3.8959846512117997e-04 6.4666796416348871e-03 0.0000000000000000e+00  -6.6513288158058809e-03 -7.9190408017579001e-03 0.0000000000000000e+00  -1.2105665994115519e-01 -1.0915804266110737e-05 0.0000000000000000e+00  4.3327848756932918e-01 9.8262705266597661e-05 0.0000000000000000e+00  -6.5224413834143666e-02 8.7060025078937384e-02 0.0000000000000000e+00  -5.9938951391530708e-02 -8.7724475266031596e-02 0.0000000000000000e+00  -6.1403315251809365e-02 -8.7198699064065965e-02 0.0000000000000000e+00  -6.0627670359235553e-02 8.9267278474723308e-02 0.0000000000000000e+00  -1.8823020741363644e-01 6.4573639428233034e-02 0.0000000000000000e+00  5.8034736428415029e-02 -5.7162281973356988e-02 0.0000000000000000e+00  5.9956786952583406e-02 6.0939463224963998e-02 0.0000000000000000e+00  -1.8223563657071862e-01 -5.6607429033092786e-02 0.0000000000000000e+00  -1.8271552264892124e-01 6.8342252510147264e-02 0.0000000000000000e+00  -1.9755577141997110e-01 -6.1193788544054530e-02 0.0000000000000000e+00  6.2285986729098852e-02 -6.1058841727107231e-02 0.0000000000000000e+00  6.5257336159273815e-02 6.8990155488012045e-02 0.0000000000000000e+00  -7.4997812713158168e-02 1.7005466532673524e-03 0.0000000000000000e+00  -7.7015813213374237e-02 -1.6946546570903113e-03 0.0000000000000000e+00  -4.7974345713266225e-02 -4.3738804457015557e-03 0.0000000000000000e+00  -7.3671309108034072e-02 8.4512667077615508e-04 0.0000000000000000e+00  -4.8142725908651027e-02 1.9980988954287145e-03 0.0000000000000000e+00  -5.0264597852615341e-02 6.2583362398193369e-03 0.0000000000000000e+00  -7.6760253692424937e-02 4.7420495493402090e-04 0.0000000000000000e+00  -4.8096654450838716e-02 -6.4558727275164903e-03 0.0000000000000000e+00  5.1540570549210539e-02 -6.3529140704703417e-03 0.0000000000000000e+00  -1.6876589192865385e-01 -1.3968795092184501e-03 0.0000000000000000e+00  -1.7171545189941173e-01 -6.3119154240490866e-04 0.0000000000000000e+00  -1.7112814092653936e-01 -2.0357589809720570e-03 0.0000000000000000e+00  1.4778264790811746e-01 -8.2527921730502060e-04 0.0000000000000000e+00  5.1375727647115219e-02 9.7648084363057726e-03 0.0000000000000000e+00  -1.7137788414340643e-01 1.3701592283515648e-03 0.0000000000000000e+00  5.1402180118721316e-02 -6.5272528052119083e-03 0.0000000000000000e+00  4.3915629432278086e-02 5.7536054732256273e-03 0.0000000000000000e+00  -2.3245348325046550e-01 -2.6375903271316841e-03 0.0000000000000000e+00  -2.2889018006458561e-01 7.3038825450222802e-03 0.0000000000000000e+00  1.5148312575871678e-01 -1.1610756338767678e-03 0.0000000000000000e+00  -5.9985968765715880e-02 2.6985515402040038e-02 0.0000000000000000e+00  -6.6110879854227034e-02 -2.8982387741197862e-02 0.0000000000000000e+00  -6.3000129703557881e-02 -2.7991801182274657e-02 0.0000000000000000e+00  -8.5577503507906910e-02 3.4777452616328482e-02 0.0000000000000000e+00  -4.2496786276447353e-02 3.4434743938808257e-02 0.0000000000000000e+00  -1.2032846602568266e-01 5.0233593602436885e-02 0.0000000000000000e+00  -1.1768701831692140e-01 -5.3777939278446513e-02 0.0000000000000000e+00  -1.1759656070981321e-01 -5.3934996356730658e-02 0.0000000000000000e+00  -1.4369619533558181e-01 -1.6479274895776641e-01 0.0000000000000000e+00  9.9217859665260057e-03 -1.7408862781998252e-01 0.0000000000000000e+00  -2.4281011778568419e-03 -5.1553761193146717e-02 0.0000000000000000e+00  -5.3411350664754935e-02 1.9323884582140938e-01 0.0000000000000000e+00  2.5836763080086981e-02 -1.7473628589303128e-01 0.0000000000000000e+00  8.6832799412114587e-04 -4.8292914950026973e-02 0.0000000000000000e+00  -1.4656607688013568e-01 -1.6976288297799785e-01 0.0000000000000000e+00  2.5066172570676958e-02 1.5977554784238324e-01 0.0000000000000000e+00  -1.3502697479243339e-01 1.6683691236802720e-01 0.0000000000000000e+00  -1.8128762763309679e-02 4.2035462899291692e-02 0.0000000000000000e+00  -4.5577270982836773e-03 6.1287642808572095e-02 0.0000000000000000e+00  4.2647499599030941e-01 -1.8073610832383596e-04 0.0000000000000000e+00  4.0524846781288026e-01 1.8049610615699834e-03 0.0000000000000000e+00  4.2668410575936266e-01 -1.0047053421508374e-02 0.0000000000000000e+00  4.3443484046323821e-01 7.1449818625198111e-04 0.0000000000000000e+00  4.1411185568196124e-01 2.0049951861238542e-02 0.0000000000000000e+00  -2.8283657714922511e-01 6.0262435271335381e-02 0.0000000000000000e+00  -2.5937454942584481e-01 -5.3899550969235911e-02 0.0000000000000000e+00  -2.7909224938527333e-01 6.7158007124856270e-02 0.0000000000000000e+00  -2.8932425475428797e-01 -6.6459580010199665e-02 0.0000000000000000e+00  -1.2149163488624064e-01 6.9045473803307569e-02 0.0000000000000000e+00  8.5857474059291616e-02 1.4929596516135105e-01 0.0000000000000000e+00  1.2539401628368455e-01 -1.1689170996892592e-01 0.0000000000000000e+00  1.3498578504859512e-01 -1.0274082999128359e-01 0.0000000000000000e+00  8.6461790710680275e-02 1.0992799821058278e-02 0.0000000000000000e+00  1.5240682671381151e-01 1.0465083698380476e-01 0.0000000000000000e+00  7.2453551086650705e-02 -1.6625377476922408e-02 0.0000000000000000e+00  7.2277891146477979e-02 -1.6685182148379930e-02 0.0000000000000000e+00  7.2189762915450512e-02 1.8207895162399870e-02 0.0000000000000000e+00  1.9650118716068348e-02 3.2825538686094023e-02 0.0000000000000000e+00  -1.7146011488063764e-01 1.7834669125219282e-01 0.0000000000000000e+00  -2.0120529767942413e-01 -1.6544161908230895e-02 0.0000000000000000e+00  -1.9614076841817682e-01 1.9183224833477813e-02 0.0000000000000000e+00  -9.2527353410676985e-02 2.2889937100569871e-02 0.0000000000000000e+00  -2.8123791228355201e-02 -2.2772536611665922e-02 0.0000000000000000e+00  -9.0618441357779397e-02 -2.1924451088264494e-02 0.0000000000000000e+00  -3.7094466844142679e-02 -2.1445747144719415e-02 0.0000000000000000e+00  -9.2377913281185678e-02 -2.2078735248937428e-02 0.0000000000000000e+00  -6.1524409920499817e-02 1.4433112185826226e-02 0.0000000000000000e+00  -1.8729906109641320e-01 1.4859922458902062e-03 0.0000000000000000e+00  -1.9838824077252157e-01 -1.2887937207342054e-02 0.0000000000000000e+00  -6.5939433484427185e-02 8.3799166191551703e-04 0.0000000000000000e+00  -5.9351438603939467e-02 -1.6960049201378237e-03 0.0000000000000000e+00  -6.5943798923286001e-02 -2.3588127067384335e-04 0.0000000000000000e+00  -1.5208947745972870e-01 3.3573958170341749e-02 0.0000000000000000e+00  3.2743309804832685e-02 3.2948188109282510e-02 0.0000000000000000e+00  1.6490853977784521e-03 8.5854191986860187e-02 0.0000000000000000e+00  -3.8466366176034307e-03 1.1678923712484400e-01 0.0000000000000000e+00  -1.5624613950518568e-01 2.8475023291578718e-02 0.0000000000000000e+00  3.4247936049978119e-02 -3.3659018358925805e-02 0.0000000000000000e+00  -1.4417332183634590e-01 1.6412291030491741e-03 0.0000000000000000e+00  3.0994378245809546e-02 -3.3211702464962911e-02 0.0000000000000000e+00  -1.3864883790286803e-01 1.2746045628838157e-03 0.0000000000000000e+00  2.1263325227691329e-01 8.3130152137860874e-02 0.0000000000000000e+00  -1.5415645743153733e-01 -3.1293861153046457e-02 0.0000000000000000e+00  -1.2503703481544937e-01 1.2809303414972750e-01 0.0000000000000000e+00  -3.8379922154183226e-02 2.2000052712855100e-02 0.0000000000000000e+00  3.5826038396733673e-01 -5.4283248475413349e-03 0.0000000000000000e+00  4.0578851500025154e-01 -1.9097262347542072e-02 0.0000000000000000e+00  4.1743750570323068e-01 2.0973706322751806e-02 0.0000000000000000e+00  -1.8328874276661372e-01 2.5275686178438256e-02 0.0000000000000000e+00  -1.5431329333436672e-01 -3.1145348309812231e-02 0.0000000000000000e+00  -1.8933620292578463e-02 -2.3572526578566314e-01 0.0000000000000000e+00  -7.7747209446107454e-02 -5.3213422656859161e-02 0.0000000000000000e+00  -4.2525204273422740e-02 2.3660263381146221e-01 0.0000000000000000e+00  -9.1572983649615691e-03 -1.0423526334560868e-01 0.0000000000000000e+00  -4.3078517742576532e-02 -5.1068728052605566e-02 0.0000000000000000e+00  -4.3569280509779353e-02 -5.0143485377735740e-02 0.0000000000000000e+00  -8.0731283963451542e-02 -5.1083270253564197e-02 0.0000000000000000e+00  -8.6121087244341851e-02 4.5240228930153184e-02 0.0000000000000000e+00  -3.5607283207763227e-02 -2.3354851417602457e-01 0.0000000000000000e+00  -1.1785379799761893e-01 3.0459568186856197e-02 0.0000000000000000e+00  -6.4905398437564363e-02 -9.8988440420781938e-03 0.0000000000000000e+00  -5.9268517380032963e-02 6.2156058232158340e-03 0.0000000000000000e+00  -5.7363644814658152e-02 -9.0661572649577049e-04 0.0000000000000000e+00  -2.2370013530722713e-03 -1.0340161803965377e-01 0.0000000000000000e+00  -1.1811051691373188e-01 -9.3622376512226310e-02 0.0000000000000000e+00  -1.4122921666210347e-01 9.4800676005896242e-02 0.0000000000000000e+00  -1.1266591629579024e-01 -9.9444409999855043e-02 0.0000000000000000e+00  4.3098855707827544e-01 6.4157899645393337e-03 0.0000000000000000e+00  -6.2108458247290638e-02 -9.9523183245106700e-03 0.0000000000000000e+00  5.5771899808216369e-02 2.3906721812679600e-02 0.0000000000000000e+00  -1.8426787522173618e-01 -1.8740360227585182e-01 0.0000000000000000e+00  -1.9160829657778980e-01 -1.7588442593196088e-01 0.0000000000000000e+00  -2.2618329109650295e-01 1.9636731425462553e-01 0.0000000000000000e+00  -2.3542770958767092e-01 -1.0965908323410602e-01 0.0000000000000000e+00  2.2310453484139034e-01 -3.3694316321764513e-02 0.0000000000000000e+00  -5.3973574579308254e-03 2.8147605089636114e-02 0.0000000000000000e+00  1.0158244353781035e-01 3.3385775608595541e-02 0.0000000000000000e+00  9.3845342090927417e-02 -3.1177176097391118e-04 0.0000000000000000e+00  1.0522181727343349e-01 -4.1051489800327315e-02 0.0000000000000000e+00  -5.0664186595472255e-02 4.9442893597686013e-02 0.0000000000000000e+00  2.3346904822622094e-01 -2.6705377568378489e-02 0.0000000000000000e+00  1.0072336128739390e-01 -3.2329648873232822e-02 0.0000000000000000e+00  1.0832010652575338e-01 3.8144167454464382e-02 0.0000000000000000e+00  4.2783416803059421e-01 -1.5208412631348588e-04 0.0000000000000000e+00  -2.7251889818404922e-02 5.3120210313402491e-03 0.0000000000000000e+00  6.8282869111636085e-02 3.1151095711034423e-03 0.0000000000000000e+00  3.7916512128520624e-01 2.4841214581552095e-02 0.0000000000000000e+00  1.2556963102974855e-01 -2.2095204065549209e-01 0.0000000000000000e+00  -2.0675615564039437e-01 -1.0688347121226928e-01 0.0000000000000000e+00  -2.0765492083511405e-01 1.0076840534645373e-01 0.0000000000000000e+00  1.2515334380455498e-01 -2.0542246546530560e-01 0.0000000000000000e+00  2.3857539810894338e-02 -7.3787585526002564e-03 0.0000000000000000e+00  -1.5744431650397306e-01 -8.4793746389440778e-03 0.0000000000000000e+00  1.7658750650927552e-02 3.4958129328011415e-03 0.0000000000000000e+00  -6.5755661691247094e-02 7.9102100651896748e-04 0.0000000000000000e+00  -5.5707279001470558e-02 2.0412132226713341e-03 0.0000000000000000e+00  -9.4160577865324183e-02 1.9293895371287754e-03 0.0000000000000000e+00  -6.5896103210282192e-02 -4.2482346971076048e-04 0.0000000000000000e+00  -9.3137657727869846e-02 2.8582261613586718e-04 0.0000000000000000e+00  -2.7875256025641483e-02 -6.0626558700772977e-03 0.0000000000000000e+00  -1.9116272191605319e-01 -1.3040669955983186e-03 0.0000000000000000e+00  -1.9127083400976178e-01 4.8142738147309199e-06 0.0000000000000000e+00  2.2573574593310459e-02 7.9915051024089696e-03 0.0000000000000000e+00  6.4810228636464101e-02 -2.8950390205531975e-03 0.0000000000000000e+00  6.2391538257336489e-02 -2.4169159728836959e-03 0.0000000000000000e+00  -1.4279153891488072e-01 -2.0908115205112141e-03 0.0000000000000000e+00  -9.3855461206163227e-02 -1.4477990410768598e-03 0.0000000000000000e+00  6.1845197016432034e-02 3.3698864434103287e-03 0.0000000000000000e+00  -9.4951972958795983e-02 5.2491231881087906e-04 0.0000000000000000e+00  -5.8031670433404257e-02 3.9174245538393920e-03 0.0000000000000000e+00  -3.0189134491655386e-02 -5.7689670336860234e-03 0.0000000000000000e+00  -1.8977941379418331e-01 -1.4042763603584365e-03 0.0000000000000000e+00  -2.7629111945093765e-02 8.6606070943089919e-03 0.0000000000000000e+00  1.5677554953922236e-02 -4.8342848410061912e-03 0.0000000000000000e+00  -2.0078013145676266e-01 5.4895772593314468e-03 0.0000000000000000e+00  -2.1574841289320962e-01 3.3563341951571499e-02 0.0000000000000000e+00  -2.2569876510266565e-01 -3.7756083454563660e-02 0.0000000000000000e+00  -2.0533211420251843e-01 -3.6148888724645213e-03 0.0000000000000000e+00  -2.1784807110578622e-01 2.4129396209732951e-02 0.0000000000000000e+00  -2.1589444374461422e-01 -3.0332267412132921e-02 0.0000000000000000e+00  6.9417903757118232e-02 -1.1660197305142779e-01 0.0000000000000000e+00  -7.4568760905464049e-02 1.3555138538990968e-02 0.0000000000000000e+00  -5.1361286356677048e-02 -1.3819528538699461e-02 0.0000000000000000e+00  -6.0002145912632754e-02 -1.4919977627528447e-01 0.0000000000000000e+00  1.1062441832909253e-01 8.7477389264584676e-02 0.0000000000000000e+00  -7.1549721664380103e-02 1.6345889743767025e-01 0.0000000000000000e+00  8.9249427683893753e-02 2.5185034974139564e-01 0.0000000000000000e+00  -7.2380198950962801e-02 -1.6505380935433293e-02 0.0000000000000000e+00  4.4868787031479512e-01 7.4458002755412840e-03 0.0000000000000000e+00  3.8246333560803925e-01 -3.2811503872568683e-02 0.0000000000000000e+00  4.3456813898949964e-01 -2.0625490369379274e-03 0.0000000000000000e+00  2.3628897401518301e-01 1.2337937542400827e-01 0.0000000000000000e+00  3.7870124037238807e-02 -9.6714226245649432e-02 0.0000000000000000e+00  -6.0719628271255981e-02 -1.4037586523749476e-01 0.0000000000000000e+00  3.9394841025285864e-02 1.0709515989791155e-01 0.0000000000000000e+00  -4.6431297766748252e-02 -1.1210864959991521e-02 0.0000000000000000e+00  -8.4500695735629308e-02 6.1307293508421026e-02 0.0000000000000000e+00  -5.8753477308568641e-02 5.3832880733692932e-02 0.0000000000000000e+00  -7.6804408384150757e-02 1.5643062621779814e-02 0.0000000000000000e+00  -6.4487739656677048e-02 2.8440305393588855e-02 0.0000000000000000e+00  -4.8554963513018523e-02 1.2500288504242752e-02 0.0000000000000000e+00  -1.9694163493869082e-01 1.0283118985146407e-01 0.0000000000000000e+00  -1.5716327862689813e-01 -6.3934544646484667e-02 0.0000000000000000e+00  -1.2772481551684745e-01 -1.8173939981265312e-02 0.0000000000000000e+00  -1.2883702765396524e-01 2.1701071459961280e-02 0.0000000000000000e+00  -1.0231019983684057e-01 7.8537737479704647e-02 0.0000000000000000e+00  -1.1410417819913224e-01 -2.4217123549878202e-02 0.0000000000000000e+00  -1.0396781412478311e-02 -2.4270302751551343e-02 0.0000000000000000e+00  -1.4400292581496335e-01 -7.5138532911041292e-02 0.0000000000000000e+00  2.8109051207317493e-02 -6.0676610936447210e-02 0.0000000000000000e+00  2.5871363153962969e-02 -6.1096127112229996e-02 0.0000000000000000e+00  3.3562168962666503e-03 -1.8539387994008567e-02 0.0000000000000000e+00  5.2843387428938356e-02 1.9379709933918552e-02 0.0000000000000000e+00  4.3473942906257163e-01 2.2349587937847918e-03 0.0000000000000000e+00  -7.2760029083862782e-02 -1.6353418235317916e-02 0.0000000000000000e+00  -1.8114138903118124e-01 2.7332077888094664e-02 0.0000000000000000e+00  -2.9934644865075855e-01 -3.7962771530913372e-03 0.0000000000000000e+00  -2.9262286273984595e-01 -3.4484206078567614e-02 0.0000000000000000e+00  9.9110818121118827e-02 -3.4522830216475188e-03 0.0000000000000000e+00  -1.5254053889131630e-01 -1.0224065603247616e-01 0.0000000000000000e+00  3.0313403188459570e-02 9.0426201343800944e-02 0.0000000000000000e+00  -1.0486513806008518e-01 1.1874326034229274e-01 0.0000000000000000e+00  -5.4822574485235320e-01 1.3729243346353809e-01 0.0000000000000000e+00  -1.8653420044024036e-01 3.1561841255195761e-01 0.0000000000000000e+00  4.0246920190719966e-02 2.3222214270518562e-01 0.0000000000000000e+00  -5.3113752038370099e-02 1.3789046768763369e-01 0.0000000000000000e+00  5.6848406571025432e-02 -3.3012849999408289e-02 0.0000000000000000e+00  5.4839156405967579e-02 -3.3413657426260637e-02 0.0000000000000000e+00  -1.8881979928500495e-02 1.3079438844026729e-02 0.0000000000000000e+00  4.9389376113164019e-01 -6.3202558132368261e-02 0.0000000000000000e+00  5.1983729807973302e-03 5.7520423029115947e-02 0.0000000000000000e+00  7.9210550722784850e-02 -1.0638190840223988e-03 0.0000000000000000e+00  -3.1061732979916913e-02 6.9175079526757832e-02 0.0000000000000000e+00  -1.7627210076858235e-01 -2.3827565290682928e-02 0.0000000000000000e+00  -3.1540491763218638e-02 1.6486763920733449e-02 0.0000000000000000e+00  5.6942318249303647e-01 -2.5554815941947220e-02 0.0000000000000000e+00  5.6362642697226284e-01 7.2363725477390159e-02 0.0000000000000000e+00  4.1157827075181341e-01 2.3310780030287434e-03 0.0000000000000000e+00  4.8686130258770449e-01 8.8365010259187873e-02 0.0000000000000000e+00  4.3873675644491711e-01 -2.7381980893403688e-02 0.0000000000000000e+00  -2.7844277613616669e-01 1.0409161318794139e-02 0.0000000000000000e+00  -1.0143653897851843e-01 9.6930460182529168e-02 0.0000000000000000e+00  -2.2984561478807973e-02 4.5456641826937469e-02 0.0000000000000000e+00  1.4641840629706121e-01 4.5459552171551253e-02 0.0000000000000000e+00  -1.4830424290113184e-01 5.7955256971028102e-02 0.0000000000000000e+00  5.1624337522360786e-01 -2.1731969198491637e-02 0.0000000000000000e+00  4.3370578015370836e-01 2.4079693182606161e-04 0.0000000000000000e+00  4.8528369006739136e-01 5.9347138259206442e-02 0.0000000000000000e+00  4.2928114508113008e-01 1.6327176815000705e-02 0.0000000000000000e+00  7.7163611401669940e-02 1.4964487422711400e-03 0.0000000000000000e+00  1.5819333863559798e-01 2.0122530324234875e-01 0.00000000