<?xml version="1.0"?>
<VTKFile type="UnstructuredGrid"  version="0.1"  >
<UnstructuredGrid>
<Piece  NumberOfPoints="1454" NumberOfCells="2775">
<Points>
<DataArray  type="Float64"  NumberOfComponents="3"  format="ascii">0.3 0.5000000000000001 0  0.3043704798532388 0.4584176618364482 0  0.3172909084714798 0.41865267138484 0  0.3381966011250105 0.3824429495415054 0  0.3661738787282283 0.3513710349045212 0  0.3999999999999999 0.3267949192431123 0  0.4381966011250105 0.3097886967409693 0  0.4790943073464691 0.3010956209263453 0  0.5209056926535306 0.3010956209263453 0  0.5618033988749894 0.3097886967409693 0  0.6000000000000001 0.3267949192431123 0  0.6338261212717717 0.3513710349045212 0  0.6618033988749895 0.3824429495415053 0  0.6827090915285202 0.41865267138484 0  0.6956295201467612 0.4584176618364482 0  0.7 0.5 0  0.6956295201467612 0.5415823381635518 0  0.6827090915285202 0.58134732861516 0  0.6618033988749895 0.6175570504584946 0  0.6338261212717716 0.6486289650954788 0  0.6000000000000001 0.6732050807568877 0  0.5618033988749895 0.6902113032590307 0  0.5209056926535307 0.6989043790736547 0  0.4790943073464694 0.6989043790736547 0  0.4381966011250105 0.6902113032590307 0  0.4 0.6732050807568878 0  0.3661738787282284 0.6486289650954788 0  0.3381966011250105 0.6175570504584946 0  0.3172909084714798 0.58134732861516 0  0.3043704798532388 0.5415823381635518 0  0 1 0  0 0 0  1 0 0  1 1 0  0 0.5 0  0.5 0 0  1 0.5 0  0.5 1 0  0.25 1 0  0.25 0 0  0.75 1 0  0.75 0 0  0 0.25 0  0 0.75 0  1 0.75 0  1 0.25 0  0.4999999999999999 0.5 0  0.7914158533805002 0.7914158533805002 0  0.2021524389767999 0.7681831485295373 0  0.2085841466194997 0.2085841466194997 0  0.7914158533805004 0.2085841466194997 0  0.375 0.8638784308312881 0  0.1378803816163856 0.3783332795216321 0  0.375 0.1332234097798627 0  0.8667765902201373 0.375 0  0.6225800521196931 0.1366043530974888 0  0.625 0.8667765902201374 0  0.8621196183836144 0.6216667204783679 0  0.1407968612991864 0.6041507496313001 0  0 0.875 0  1 0.875 0  0.125 0 0  1 0.125 0  0.125 1 0  0.875 1 0  0 0.125 0  0.875 0 0  0.4998919874181131 0.8746448536558417 0  0 0.625 0  1 0.625 0  1 0.375 0  0.375 0 0  0 0.375 0  0.625 0 0  0.375 1 0  0.625 1 0  0.4982699833861716 0.1729956178527937 0  0.8761034965738329 0.4985534095163984 0  0.127811506922932 0.872188493077068 0  0.2540970792501245 0.8783080007718707 0  0.1151673734764709 0.4915541912810019 0  0.3223670456095999 0.2384211661757569 0  0.6833372263849786 0.2476579562543849 0  0.6833372263849786 0.752342043745615 0  0.8778277895069679 0.8778277895069679 0  0.122172210493032 0.122172210493032 0  0.8778277895069679 0.122172210493032 0  0.7700607733823985 0.3185260340596345 0  0.7696058571723117 0.682732269644141 0  0.3197835774673578 0.7596631654580212 0  0.2392577219646422 0.3209595808276195 0  0.8961763879526962 0.773067254934772 0  0.7351780705584838 0.8886532231759519 0  0.7730672549347721 0.1038236120473038 0  0.1038236120473038 0.2269327450652279 0  0.2648219294415162 0.1113467768240482 0  0.8886532231759519 0.2648219294415162 0  0.1054130092674181 0.7108770073687189 0  0.2548170042898516 0.6789993268248264 0  0.587079571381759 0.5502754139781758 0  0.5747238274932305 0.4327183635196812 0  0.4408977062214586 0.4186526713848401 0  0.4408977062214589 0.5813473286151601 0  0.5616140758944522 0.7898714366207302 0  0.4440937003623048 0.7921473296045184 0  0.2087893128996136 0.4693925234311219 0  0.7938394060632316 0.4426346886069004 0  0.4156077407117992 0.2182813763985365 0  0.7933620485537008 0.551506024560979 0  0.5625 0.06721642294511197 0  0.5946193290945395 0.224048458869715 0  0.4582586870213877 0.08608903159971265 0  0.07045590740533117 0.3139693527557936 0  0.6875 0.06836040114436549 0  0.9295440925946687 0.6860306472442064 0  0.228459852535006 0.5882287422293644 0  0.5663878967658712 0.9333882951100687 0  0.9324144159339477 0.567300347305719 0  0.4375 0.9373762335778287 0  0.9374345481802822 0.1875 0  0.8125 0.9374345481802822 0  0.189546907405744 0.06470711437903298 0  0.06256184553619623 0.8125 0  0.1879621217068254 0.9369963636083901 0  0.06525099253924901 0.934749007460751 0  0 0.5625 0  1 0.4375 0  1 0.9375 0  1 0.0625 0  0.0625 0 0  0.3125 1 0  0.7155963055529062 0.1678766615500789 0  0.157319641589405 0.2944298036409996 0  0.06781604993962839 0.4231664820159714 0  0.3939318041476392 0.5000000000000002 0  0.5236067977499791 0.6110612514829192 0  0.8491472269899877 0.7051229415572858 0  0.3309653086344123 0.06661170488993132 0  0.9333882951100687 0.3309653086344124 0  0.6690346913655877 0.9333882951100687 0  0.1801369609631639 0.6950410617497127 0  0.2419148527928277 0.398848555786093 0  0.3205384512542679 0.9212816700650597 0  0.1739486117205966 0.5373894711956458 0  0.8053011870910239 0.8639424557964442 0  0.8640194651428666 0.195232142735168 0  0.9208157151958603 0.4330493914544106 0  0.06731460158162227 0.59375 0  0.1293305233397199 0.7808082361170168 0  0.7214798526210021 0.8158493765576661 0  0.9379407340415554 0.834369324233536 0  0.06205926595844456 0.1656306757664639 0  0.834369324233536 0.06205926595844454 0  0.1933551524636128 0.1374012046489189 0  0.5124696767167315 0.3813589510906815 0  0.6264313493029962 0.486711529717901 0  0.6979292567415308 0.3182984555092869 0  0.6976597571221709 0.6818301996628066 0  0 0.0625 0  0.9375 1 0  0.9375 0 0  0.3110352892073758 0.1669859759717326 0  0.9396044791752965 0.90625 0  0.9286592134836629 0.0713407865163371 0  0.09375 0.06039552082470347 0  0 0.6875 0  0.2640377696991831 0.8063058160219949 0  0.7501781079362082 0.6114517774162156 0  0.7476601911528998 0.3871501441234476 0  0.3054358636015435 0.3248136647115133 0  0.8386296172312449 0.3121503048425923 0  0.5277308120296073 0.2338396937449441 0  0.4355248097172669 0.1565504118792135 0  0.5545670502929511 0.1347895697205513 0  0.8181557168205812 0.1499135854559606 0  0.3967692595315608 0.06225166083925565 0  0.8500220261378577 0.8177880939816058 0  0.3901445684726052 0.744502866137253 0  0.6306318354183176 0.7975605773042906 0  0.6058385755884177 0.737717332869227 0  0.1748906398236051 0.8272683369375424 0  0.1502632849784595 0.1838408775800746 0  0.6502139254796755 0.1936327813521849 0  0.5001780025755085 0.9373222269168887 0  0.5624537573875429 0.8708341670149987 0  0.4369959663677339 0.8744820213765581 0  0.3119848795812452 0.8496127428295122 0  0.6250464886663574 0.06270869697807904 0  1 0.8125 0  1 0.3125 0  0 0.4375 0  0.3125 0 0  0.1875 1 0  0 0.8125 0  0.1875 0 0  0.4375 1 0  0.5625 1 0  1 0.5625 0  1 0.6875 0  0.6875 0 0  0 0.3125 0  0.5625 0 0  1 0.1875 0  0.8125 1 0  0.0625 1 0  0 0.9375 0  0.8125 0 0  0.6875 1 0  0 0.1875 0  0.4375 0 0  0.9381264641189966 0.4928774988666655 0  0.8574817089078239 0.4378304035524578 0  0.8708336760363848 0.5603056725718305 0  0.3790943073464694 0.5698049342000741 0  0.3790943073464692 0.4301950657999258 0  0.09699198025733702 0.6488564313418391 0  0.1265567263882929 0.9385935652376579 0  0.06662715438513017 0.8735646549229491 0  0.8870367683558067 0.9391597710487991 0  0.2616515055203322 0.9394773093344178 0  0.5 0.7599423133772739 0  0.2355209028551884 0.5260138446260619 0  0.3447992451364198 0.7049066807771696 0  0.3851555233044552 0.8045183708372414 0  0.807544162898414 0.3842688459299915 0  0.5150765490060205 0.4416087767814029 0  0.9219886204954419 0.6264481473149689 0  0.5618033988749894 0.4935042010244247 0  0.3798834451095011 0.9230485423506501 0  0.2595470358723564 0.7443045035459492 0  0.3775930918588982 0.268192865332369 0  0.2689430915414839 0.2102794294205647 0  0.1918604164519056 0.6360078389391222 0  0.2751920385708647 0.2740311529854664 0  0.9412933971826505 0.1287974040101523 0  0.1952495842811888 0.3614506999259398 0  0.2110485367283934 0.26828546488848 0  0.3618989026872069 0.19553385927417 0  0.470391886696628 0.639295221331894 0  0.5837048281386983 0.615209812106251 0  0.2758873557403419 0.6236691368595794 0  0.124463970739589 0.4345305018445105 0  0.05654107422906772 0.4815599912482996 0  0.1164892066038379 0.5504685132668864 0  0.1805737091134396 0.4182259124586955 0  0.73524874005715 0.2222355315498386 0  0.6288884512448578 0.2737679575488176 0  0.7475697164431174 0.7436844997068341 0  0.5102129388977947 0.8173032516481897 0  0.04760011349896155 0.09375 0  0.7998758983258211 0.2672723692309274 0  0.4956295201467612 0.5589684897927998 0  0.4720605432084367 0.2232408188662724 0  0.0520025429340995 0.538608114694597 0  0.8401013148178424 0.7615291518333595 0  0.06065281431426021 0.7518490441277296 0  0.8044714146235177 0.6349417422924999 0  0.2463152230456856 0.05715039838842509 0  0.6834690949366096 0.860691791112867 0  0.7261154149350592 0.9465194980401239 0  0.9426533848719503 0.2448411840818428 0  0.1614197361033117 0.2386486027855448 0  0.196762045584441 0.8803054709338074 0  0.7625797237112397 0.4969343418203607 0  0.8194021557611392 0.4934986133665554 0  0.05581039941623601 0.3682457694491854 0  0.4395471536732346 0.3642206840629047 0  0.6408476765628378 0.5395996288609886 0  0.5696008515796905 0.3755183759596032 0  0.6295365911066271 0.4319818394577425 0  0.05561885129840902 0.686055974737701 0  0.5138379072850062 0.09575582189238677 0  0.646802077316546 0.7016458209836425 0  0.3112506607293006 0.6635182165185471 0  0.7427168918389055 0.0560924584708487 0  0.05639972143979972 0.258666070779537 0  0.9521491272955682 0.7798115182123798 0  0.4469659020738196 0.5236123016961975 0  0.8002875272163472 0.7262157251999823 0  0.4384159533088174 0.4714513830827712 0  0.2400217335432446 0.1646378093899522 0  0.7662905421792796 0.1555524133565853 0  0.7190592747636646 0.1131746374356031 0  0.7341254212553772 0.2770797180773578 0  0.9185754655158186 0.3809572294181753 0  0.6177112940657294 0.9194556585321012 0  0.5483972025684082 0.1862784489454469 0  0.3160433033772769 0.1158145940057346 0  0.4410897420031716 0.7411825218818295 0  0.4027900950589431 0.6141599659729445 0  0.1599353922875092 0.7410059829650223 0  0.5468459518766706 0.7418881042159506 0  0.59216222
[...]
<PointData  Scalars="f_39"> 
<DataArray  type="Float64"  Name="f_39"  format="ascii">-5.5263828228126401e-02  -5.2397121258983749e-02  -4.7265452509796010e-02  -3.9778738484401062e-02  -3.0361746405961482e-02  -1.8698265334470682e-02  -5.2714925728219453e-03  9.4475868650987227e-03  2.4400201053790139e-02  3.8844984355524304e-02  5.2244377432417832e-02  6.3685651465249099e-02  7.2605312173174910e-02  7.8682809733351455e-02  8.1969738423750618e-02  8.2325929857846716e-02  8.0075376507770371e-02  7.4958424475915567e-02  6.7394235104883737e-02  5.7604701307165114e-02  4.5176896116054292e-02  3.1444417728956606e-02  1.6286994257709783e-02  8.1795182356767676e-04  -1.4025015258145564e-02  -2.7476190099462727e-02  -3.8689557979438273e-02  -4.7329406700924261e-02  -5.2901996060962513e-02  -5.5616793020097269e-02  0.0000000000000000e+00  0.0000000000000000e+00  0.0000000000000000e+00  0.0000000000000000e+00  6.6666666666666666e-02  1.8393314502017609e-02  -3.3333333333333333e-02  5.4010934813751212e-03  4.8420102572169976e-03  2.3824875220276241e-02  1.4289853315899344e-03  1.3424615925355860e-02  1.0000000000000001e-01  3.3333333333333333e-02  -5.0000000000000003e-02  -1.6666666666666666e-02  1.3068097907219375e-02  3.7681576234920569e-03  3.7387682022525692e-03  2.5273507022430083e-02  1.6065156285703496e-02  1.0075869719649657e-03  3.1399687600009357e-02  1.5875006977569401e-02  9.4696561077658187e-03  2.1274769949498402e-02  9.8226054609286927e-03  1.6967550954609192e-03  1.3729136829288819e-02  1.6666666666666666e-02  -2.5000000000000001e-02  2.8189512348299778e-02  -8.3333333333333332e-03  7.7096598445570950e-03  -6.4392203214953744e-03  5.0000000000000003e-02  4.9609261403572398e-03  5.9687770894252907e-03  5.0000000000000003e-02  -4.1666666666666664e-02  -2.5000000000000001e-02  1.9087333319953805e-02  8.3333333333333329e-02  1.8030614434778703e-02  3.5824296407020416e-03  6.0472202885929133e-03  1.7873261608271455e-02  5.4134422580147711e-03  1.0217743050566983e-02  3.4258274279148505e-03  2.8419784286431934e-02  6.9012809539920495e-03  3.1221601571232764e-02  2.1635804944360862e-02  -9.6135333702956540e-03  3.6002016835440673e-02  4.2671906363513775e-03  2.9617424243264606e-02  2.0449776912121742e-02  -7.6573271660915418e-03  6.5855827195192545e-03  -1.5532711184322600e-02  4.3464597621866545e-03  1.3385125827794201e-02  4.9192141372763037e-02  2.1986283307632526e-02  2.9539405351407455e-03  1.8959202108062650e-02  -1.1665177009533888e-02  4.2513559034256500e-02  4.0727765210684296e-02  -5.7572524789316314e-03  -9.7916152455939862e-03  1.3820291004246265e-02  5.5681672490683011e-04  -5.5862967319603666e-03  3.4621036282193075e-02  9.2902374011392293e-03  3.1925096290912572e-02  1.8934123223182480e-02  2.7895262855935028e-02  1.7691979150597982e-02  6.1261295681019790e-02  1.7172296181377882e-02  -2.3023806924567777e-02  -1.4826106303964555e-02  6.8617017723055776e-03  -1.6580270011232013e-02  4.0479998891563848e-03  -3.8456071705450525e-03  -2.5546100526345514e-03  2.7478702614503997e-02  1.8666277869357286e-02  6.5280194861823196e-03  9.4735553771974276e-03  5.8333333333333327e-02  -2.9166666666666664e-02  -1.2500000000000001e-02  -4.1666666666666666e-03  2.4126361930160205e-02  3.7661942824544826e-03  2.0485979413630385e-02  3.2567966520891556e-02  5.2153620061608681e-02  -2.3779286425967400e-02  1.8915215329931921e-02  -1.6210479675880696e-03  1.9577376832655747e-02  -6.8950445558115976e-03  5.9916822777793949e-03  4.6767239130938885e-03  -9.0577779745152666e-03  2.8807751893597956e-03  4.4099117795234292e-03  -1.1641984619441765e-03  6.1754256521639531e-03  -6.2933776498028870e-03  3.5362366395430861e-02  1.2825822435315470e-02  1.0075376791544745e-02  -2.1210720529686412e-02  5.1933116911209422e-02  8.0286637736806214e-03  2.8464287728620828e-02  1.9923869848969131e-02  5.7539444843716217e-02  4.3586987181705526e-02  3.5649338856875920e-02  2.5000000000000001e-02  -8.0553482094562617e-03  9.0219114685451205e-04  1.5944636091677497e-02  -1.4168536342858836e-02  4.3492875269791599e-04  3.0830239608022409e-02  4.1666666666666664e-02  -6.7058210255923234e-05  3.9169370531700672e-02  4.5459329328356793e-02  -9.9943134824247055e-03  1.4138892435087373e-02  2.1591775682777242e-02  1.5078056075686618e-02  2.0138830226308094e-02  1.0686386610868242e-02  1.8123410911941005e-02  -6.5236445577813969e-03  -9.5853779832010232e-03  1.6191754358183937e-02  2.5559104254036118e-02  7.5141898671218614e-03  3.6036260856798924e-02  2.5427043083579123e-02  5.5467008115484108e-03  8.6716442194877969e-03  3.1148102085510085e-03  4.5111989727956411e-04  1.8646336943666846e-02  -3.7500000000000006e-02  -2.0833333333333332e-02  7.4999999999999983e-02  2.0956823020635215e-02  6.4303748468245584e-03  2.5000000000000001e-02  2.6851997798678539e-02  4.2848000486109400e-03  6.2332620398517571e-03  -3.7499999999999992e-02  -4.5833333333333323e-02  1.6381943642270764e-02  9.1666666666666646e-02  1.8541231989978656e-02  -1.2500000000000001e-02  -2.5826673952207631e-03  7.2146163476464039e-03  8.3333333333333332e-03  9.4322632376611353e-03  4.4635940674808928e-03  7.5000000000000011e-02  1.8345330216435290e-02  -1.4036614711359995e-02  1.2815086062787985e-02  3.7144911866318492e-03  -3.1173630337688437e-02  -2.7134375411337213e-02  2.3706454956011647e-02  8.3944960899468447e-03  1.3600463211473951e-02  -8.1721580074577589e-03  4.2841920469580018e-03  7.4988816999983230e-03  -2.0293237392786150e-02  -1.8661938832830519e-02  -2.4994688830868423e-03  2.6517349510315022e-02  1.9622948512204200e-02  -1.7216486908139230e-02  3.4847577431388339e-02  2.8957592518103216e-03  -4.6113902636232091e-03  -9.6499109109586881e-04  1.6046021166417242e-02  -3.5537508651822965e-04  6.8018968799356929e-03  -2.3996836915704742e-03  1.3648983927486157e-02  2.0576451697510576e-02  1.0999580839314068e-02  -8.4612713429086013e-04  4.0213445484639752e-02  -2.6173307980877299e-02  3.0436187979086437e-02  4.9773604458953485e-02  2.3573408696770902e-02  1.1436044692522103e-02  2.3547743554042974e-02  3.7705654999544910e-02  1.5380943337564774e-02  7.5455534357355900e-03  3.6846647219408064e-02  1.8907877597682921e-02  1.0153055629497115e-02  1.4028502068483708e-02  4.5204400806605226e-02  -3.0352548775809327e-03  2.3895123382921865e-02  1.7923746860654212e-02  2.3932285755272828e-02  8.8387310123393230e-03  3.1932905230943219e-03  -6.4265610451792630e-03  3.4003983862289151e-02  6.1308034246132410e-03  4.8325626849730581e-02  2.5371349012387079e-02  6.2472933030437709e-02  -5.3486677148118613e-03  6.1425746346468392e-02  4.0239395257260356e-02  5.9945626279535751e-02  3.0363269177459049e-02  1.8553061481037400e-02  3.5711285302443406e-02  -2.5536178775917386e-02  1.4290522008131371e-02  6.7975774423283314e-02  -2.9403474703422451e-02  -6.0504216083663550e-03  7.8283436043036971e-03  -7.7244731010944539e-03  2.2599413037360180e-02  1.5837364770259786e-02  1.7221855778286645e-02  3.0386394117037502e-02  -4.3399128378196978e-03  7.4085781815883068e-03  2.1679826995330550e-02  1.8641255432559189e-02  -4.1011936797447609e-03  -2.4376013934038321e-02  9.0353748370158443e-03  1.7389840215109597e-02  1.2116584507360376e-02  5.5241173459958916e-02  2.0460742093932522e-02  -3.9269443973218611e-02  1.5792790030547767e-02  5.3360160841728871e-02  -1.6819256441221807e-02  -1.9568493210338662e-02  1.8311014902126773e-02  4.2621609620474296e-03  4.3552283419950643e-03  -2.4217352580872171e-02  1.1532105856973566e-02  -2.3618585542937033e-02  1.4103710134887973e-02  -1.3342728013461952e-02  2.9160487041526264e-02  1.1745029812598524e-02  3.3957803773642294e-03  1.6699731761353271e-02  1.7329174349764772e-02  2.5873210521326493e-02  5.4683138466595414e-02  4.2206901620913100e-03  5.8651635721116745e-03  3.9333105676806947e-03  -1.0150267935153745e-02  -5.9364895676733561e-04  -3.2665659353329025e-02  4.8775019060532936e-02  4.2201435454237338e-02  -9.5227312229687350e-03  6.7038198641109562e-02  -2.4279645802383995e-02  2.4487009253306269e-02  3.6705867616229779e-02  5.4289349309822774e-04  4.1580125766040804e-03  1.4891630892274462e-02  1.1440951284212611e-02  3.3503433794322940e-02  2.3362144493813634e-02  1.9726845599932173e-02  -1.0944913650850032e-02  -3.7058920006546439e-02  4.1267056746942558e-04  1.1525584005775261e-02  -2.5245083717122278e-03  4.5061691627151526e-02  1.9326352145628695e-02  -1.8013076032286038e-02  -1.4366587752274968e-02  8.3358094320204034e-03  -3.1635975865817435e-02  5.7495798598161218e-04  -2.7755616232316975e-02  -5.7548611864376353e-03  6.4960961787702822e-03  6.7865159427138253e-03  -1.2542268274921015e-02  5.2216259840024426e-02  3.4546940712680323e-02  1.8525601972873895e-02  1.8143029864911321e-02  -3.5769431097704748e-03  3.0599203592172677e-02  2.5468777023176074e-02  1.7475200364438215e-02  4.6518203566180806e-03  3.6586648986748575e-03  4.8192683452610097e-03  8.1163494770733428e-03  1.2036331438348119e-02  8.3223223347958801e-04  -5.1287373804377217e-03  3.0126164674164102e-04  -5.8827939959970625e-03  1.0364234507269162e-02  1.8269509839096879e-02  5.4340812846700812e-03  7.9992865300235038e-03  5.9826327827978958e-03  4.1666666666666666e-03  5.3489962749221753e-03  -8.3359324798887270e-04  1.4119493814106600e-02  3.0954073636215045e-02  5.0703321217380349e-03  2.2302102083635950e-02  8.7790480304941255e-04  2.8053678400436623e-02  9.8016036152660021e-03  7.1580731622615610e-03  1.9309155890658618e-02  2.5147154656866528e-02  5.3708582134708353e-02  -1.1773810489085954e-03  -3.5011775207457213e-02  2.9166666666666664e-02  -1.2207422328865234e-02  1.8500852160737741e-02  2.1663835762255047e-02  -1.1814866513696749e-02  3.7499999999999992e-02  4.4216041132893562e-03  1.4664966386686603e-02  3.5430488483370599e-03  -6.3699009021610945e-03  1.2642038034025879e-02  4.5871708054861605e-02  7.9166666666666663e-02  -3.1250000000000000e-02  -1.8281210640492786e-02  6.2599094034436510e-03  -6.7997280740249811e-03  1.6063913287198136e-02  3.0295868953796951e-02  9.9886102189012064e-03  2.8185085867666278e-02  4.0244858412550481e-02  5.0955760062166254e-02  1.2074472332979863e-02  4.7898824804585450e-03  4.6864874192523047e-02  -1.7987814899650734e-02  2.5409101083096096e-02  1.8107175088389892e-02  2.7783916770556312e-02  -4.3471389996930640e-03  2.8430737346219280e-02  -1.3176841266804135e-03  -9.4241132606927881e-03  2.9347335908008063e-02  8.0496579111575574e-03  -1.4181128282787087e-02  -2.3462776942430909e-02  1.7876821227079079e-02  1.9857974849926061e-02  1.9107921725672650e-02  7.8477946196985424e-03  5.2545465854481957e-03  1.0633117745181416e-02  4.1312349558690425e-02  2.4325849409450147e-02  1.8652417048040458e-03  3.3474199935785314e-03  4.0260268411589563e-02  -4.7726532754448396e-03  3.7300325771828674e-03  2.0379723321571354e-03  3.1681546007393548e-03  -8.6170277062235356e-03  7.4238383092029653e-02  2.5636051689710219e-02  1.8759946753158622e-02  2.1368774099818209e-02  3.8183237932954993e-02  1.5045280439168768e-02  1.7567623486311742e-02  1.3292342929972133e-02  -1.5704403344088930e-02  -3.6516967858225596e-03  9.5833333333333326e-02  -2.7481153539372721e-02  -3.8190551629807348e-03  -4.9616496869602737e-03  7.6345528908829674e-02  3.2100900704818344e-02  1.4991844968808362e-02  9.9821601817671676e-03  2.2314926257075919e-03  1.2595115791997522e-02  1.4961620003391737e-02  3.2941671395061871e-02  5.4776867404954478e-03  2.0888926207426346e-02  1.5701918899621085e-02  3.1152721411729406e-03  6.8522800735620878e-02  6.9042361127524488e-02  4.5899558418549757e-02  5.0758429331949087e-02  -8.9626736626658623e-03  1.7491802513605534e-02  1.1633221290123617e-02  1.7722438704812292e-02  5.2704419303508970e-02  9.8321671174371340e-03  1.8577136069997467e-02  6.5614840010410408e-03  6.3608597468458100e-03  5.4166666666666669e-02  4.6402981017206066e-02  2.4724809103711807e-02  -2.0531150843027996e-02  -1.4957898809650733e-02  7.2157282242451513e-03  4.7934047407202925e-02  1.8602074046101251e-02  6.3164882624544404e-03  1.5439356042915837e-02  8.2523272984904132e-03  5.5945658348271851e-02  -8.8730174616100284e-04  -5.8064786285660650e-03  1.1124407532613756e-02  5.5796663402254323e-02  1.8090927029830025e-03  8.5216962728516202e-03  4.9085589871231051e-02  7.2969319812091864e-03  1.9405592787421839e-02  -2.8298006468631138e-03  2.3226318203947199e-02  4.5475702420971148e-03  2.9395371367558588e-02  3.3187301052065320e-02  -3.9348636391720029e-03  1.9678195007230602e-03  9.4033737192913698e-04  -1.4952758259056505e-02  1.1763774686151932e-02  1.9658302811036005e-02  1.6106561463835954e-02  -1.5651834555271284e-02  5.9925254343740762e-02  4.3718997104740032e-02  1.9241360741368895e-03  3.5889123358586343e-02  2.6186519466294900e-02  -4.0256021845655951e-03  -9.2913417783677451e-03  2.6620647147838676e-02  2.3478426187468200e-03  1.2456955675108797e-02  -3.9197360722334193e-02  6.0281797884991058e-02  2.3852385666899713e-02  -2.7955598343402648e-02  2.4701118372089319e-02  -2.7640348859855968e-03  2.2749814376645076e-03  2.5700468227800338e-02  4.7946050213234295e-03  1.8411280687329865e-02  5.9576162942548277e-03  -3.7981151173493766e-02  7.2835191031558211e-03  -3.1250000000000000e-02  1.8630377563528165e-02  2.7181078497577803e-02  2.4122159480247891e-02  6.5869098990468403e-02  8.5724216279892910e-03  3.0824462302156325e-02  -3.5261612122148393e-02  2.2578587577139639e-02  -9.9283970042269507e-03  1.5697387381236608e-02  8.1150739307697412e-03  4.2398270465276285e-02  3.8010408962923611e-02  2.0235781049081646e-02  -1.3471470525546401e-02  5.2847341003172911e-03  3.0262805692378183e-02  1.7857618133925585e-03  -2.1332324464178098e-02  5.2296621719319536e-02  6.4528879967294429e-03  1.1899063857457291e-02  5.4604509834675859e-02  1.9137653565982671e-02  4.5833333333333323e-02  2.6765473463959060e-02  2.0812675288793152e-02  1.9478776250080692e-02  -1.0959559861201373e-02  2.7137933639823388e-02  2.8781221003018193e-02  -1.8750000000000003e-02  -1.4085469507905284e-02  3.5254985891870895e-03  -2.7435770062001593e-02  1.9544785603458983e-02  1.4992378328392744e-02  6.2500000000000000e-02  7.7468706082876558e-03  2.1892369222681375e-02  2.5835206957295628e-02  6.7577530701004099e-02  3.9213603079090747e-02  -2.9719554016959474e-02  -4.2521758881622199e-02  3.5251168690798078e-02  -4.4585232527968068e-03  -2.2846975194006702e-02  1.7357429928428300e-02  4.2757935963790600e-02  3.9851402857065100e-02  1.9481448624916898e-02  1.8302354065708001e-02  3.8362346991910865e-02  1.0094339523599487e-02  2.4857737078195524e-02  4.0389456206021196e-03  1.7608162266979505e-02  3.8815569158290892e-03  -3.8722386494608574e-02  -2.2916666666666662e-02  -6.2500000000000003e-03  -6.2767572681500829e-03  6.2922038806334915e-02  -2.9317906546711885e-02  9.5394400061001028e-03  1.5412570261809453e-03  1.8977147725790190e-03  -1.9632044178845072e-02  3.4392819615693272e-02  -8.6965725986964532e-03  2.7624036285595455e-02  4.2412702884157619e-02  -7.3882194285417755e-03  3.4586084269366829e-04  1.5278506510053190e-02  -1.0579273504491104e-02  1.6460085137696728e-02  3.4784761309179263e-02  2.0785651005479074e-02  2.5595227454893045e-02  5.4339437074159246e-02  6.0525706766210215e-04  6.2766020867338970e-03  -3.5696199047236588e-02  4.2006657062191666e-03  1.9237612381740815e-03  8.1269749878219266e-04  -4.5782453854908069e-02  1.9642870201012064e-02  1.1767990862283521e-02  1.4005942433749894e-02  1.1352202976697348e-02  7.0833333333333331e-02  1.3498131148131230e-02  3.7662363741502959e-03  -1.0514567140133152e-02  -1.8694748051540735e-03  2.1432081445968865e-02  1.7235484184948729e-02  1.2500000000000001e-02  -3.5539037164419647e-02  1.2389857132836687e-02  -9.9061714438472802e-03  6.2500000000000000e-02  2.3579552834968764e-02  1.3980843009596677e-02  -2.5808157066473932e-02  4.4373196674293378e-03  2.6539732729125257e-02  1.2660773749292885e-02  1.7502563651778481e-02  6.5377958955399208e-03  5.6483676037763761e-02  2.3382574796167802e-02  2.6135516112579971e-02  2.8379866791065106e-02  3.1629773805283971e-02  4.2004169326809997e-02  2.3800960698445079e-02  4.3491701943292813e-02  3.7757375188315803e-02  6.1216403785111825e-02  6.3156746785273197e-03  1.8613598990270423e-02  4.4811694560555971e-03  1.9439361213930782e-03  -2.1030160670397022e-02  -9.5812157236235800e-03  1.8461481213021744e-02  1.8103792804346597e-02  1.8136344556162386e-02  1.8901071821796234e-02  5.7710088424338694e-03  4.7814925502115109e-03  7.5850093016507506e-03  6.2896129751619220e-02  4.2423404696998443e-02  4.3979387685814289e-02  4.2275196688570894e-03  -9.1913127152740335e-05  -3.3889303383537607e-02  3.3943636717335857e-02  1.9183495877301629e-02  1.7929501589275299e-02  2.7176963067336361e-02  -1.8820942170600337e-03  2.1775303782543803e-02  6.3575321894452112e-03  5.4373527317124280e-03  1.1532389547104307e-02  8.7499999999999981e-02  -7.7363055100005806e-03  -1.0416666666666666e-02  -3.5360941414220947e-04  5.8990125437543024e-03  2.8021227377524461e-03  -4.6107614927667516e-03  2.0833333333333332e-02  1.2500000000000001e-02  2.7892398095246861e-02  7.8076344431056250e-03  4.8317310335897826e-03  3.8531764063623741e-03  1.7360158855635532e-02  -6.2500000000000003e-03  1.8406294114612972e-02  -1.4583333333333332e-02  -1.8749999999999999e-02  6.3117965622130493e-03  -3.5416666666666666e-02  8.7499999999999994e-02  -4.3749999999999997e-02  3.5660232601658470e-03  -2.7083333333333334e-02  -4.7916666666666663e-02  -4.3749999999999997e-02  3.7500000000000006e-02  -3.9583333333333331e-02  5.6088307827745834e-03  -2.0833333333333333e-03  5.4639802249448607e-03  2.7173303961453718e-02  3.0951028512432397e-03  -5.1312283124062546e-04  1.9120117471933797e-02  4.4244079300051420e-02  1.3307320873419015e-02  -4.8553597532498619e-03  -9.8047050965366280e-03  -2.3440091494566703e-02  -8.0463104978619089e-03  -3.7903378160041609e-04  -1.1015466670605970e-02  3.9836804066499358e-02  -7.2111283442756200e-03  -1.2499020720528446e-03  1.1028804104725806e-02  -6.5664097021217414e-03  5.0010427626576660e-03  9.8315287795438752e-04  2.0222077347618597e-03  1.5026240727339435e-02  -1.5983637966596968e-02  1.8717573391004699e-02  7.8460348299188142e-03  9.1548459601705455e-03  9.7176630842296524e-03  1.8435790771244773e-02  -1.8283167326827110e-02  1.3026453446561614e-02  1.1413871676917138e-02  1.5899313470700453e-02  1.5228747135990586e-02  6.5836335250727171e-02  1.6955239657529212e-02  -2.6334688856061619e-02  2.3581788693012733e-02  2.3004081044862623e-02  4.1150300222757119e-02  4.2258966279564610e-03  3.2428208719349025e-02  4.5768194148616305e-02  2.0446152607268672e-02  1.4834597001724539e-02  1.1289781964411957e-02  1.3805950592436920e-02  1.8681350049774444e-02  9.9808373695018937e-03  -7.7865916016989743e-03  8.7954092471264657e-03  3.9435528520297788e-02  2.9688650843921770e-02  -5.4794371711363518e-03  -6.0707302776645859e-04  1.9578842264531696e-03  -4.7805278673185628e-04  3.4605271903147810e-03  -1.2693516925610219e-02  -8.3173296695953323e-03  7.4533937835217041e-03  4.5748448431548192e-03  -1.6543531537437010e-03  5.4608686512349061e-03  -1.5980522185324558e-02  -8.0798199658292501e-03  -1.8407341346455670e-02  1.6490474597211622e-02  3.5981206220145584e-02  1.7699334273777637e-02  -1.7832323694190435e-02  4.4917976758934129e-03  2.2531000928132313e-02  7.2404686640808172e-03  2.6375954038031588e-02  1.5247974255475924e-02  2.4647991630657118e-02  3.1630900295657673e-03  7.3542258411206200e-04  2.4299772433104359e-02  4.1603473740279943e-02  -2.6106180349413227e-02  2.0001678264640978e-02  -1.8114779539065987e-02  4.8159562495394166e-03  2.1656599220987185e-03  2.8161920961488505e-03  2.7832764118240354e-02  1.6865029805982888e-02  6.5050058553637158e-02  1.6479141531672719e-02  2.9903137488797922e-02  -1.8924045335887981e-02  -1.7829103618929570e-02  1.2990208520499308e-02  9.2666692748100722e-03  3.6449279439297509e-02  1.3834256984308213e-02  6.6967915681305640e-02  7.0451199629576230e-