<?xml version="1.0"?>
<VTKFile type="UnstructuredGrid"  version="0.1"  >
<UnstructuredGrid>
<Piece  NumberOfPoints="657" NumberOfCells="1224">
<Points>
<DataArray  type="Float64"  NumberOfComponents="3"  format="ascii">0.3 0.5 0  0.3097886967409692 0.4381966011250106 0  0.3381966011250105 0.3824429495415054 0  0.3824429495415054 0.3381966011250105 0  0.4381966011250105 0.3097886967409693 0  0.4999999999999999 0.3 0  0.5618033988749894 0.3097886967409693 0  0.6175570504584946 0.3381966011250105 0  0.6618033988749895 0.3824429495415053 0  0.6902113032590307 0.4381966011250105 0  0.7 0.5 0  0.6902113032590307 0.5618033988749895 0  0.6618033988749895 0.6175570504584946 0  0.6175570504584946 0.6618033988749895 0  0.5618033988749895 0.6902113032590307 0  0.5 0.7 0  0.4381966011250105 0.6902113032590307 0  0.3824429495415054 0.6618033988749895 0  0.3381966011250105 0.6175570504584946 0  0.3097886967409693 0.5618033988749895 0  0 1 0  0 0 0  1 0 0  1 1 0  0 0.5 0  0.5 0 0  1 0.5 0  0.5 1 0  0.75 0 0  0 0.25 0  1 0.75 0  0.75 1 0  0 0.75 0  0.25 1 0  0.25 0 0  1 0.25 0  0.5 0.5 0  0.2105003185409219 0.7894996814590781 0  0.7894996814590781 0.7894996814590781 0  0.2105003185409219 0.2105003185409219 0  0.789499681459078 0.2105003185409218 0  0.8675880167489374 0.375 0  0.625 0.8675880167489375 0  0.375 0.8675880167489375 0  0.1324119832510625 0.375 0  0.1367509911404222 0.621845030922803 0  0.8632490088595778 0.621845030922803 0  0.375 0.1324119832510625 0  0.6218450309228029 0.1367509911404222 0  1 0.125 0  0 0.875 0  0.125 0 0  1 0.875 0  0.875 0 0  0.125 1 0  0 0.125 0  0.875 1 0  0.375 0 0  1 0.625 0  0 0.625 0  0 0.375 0  0.5 0.8304113032834708 0  0.375 1 0  1 0.375 0  0.625 1 0  0.625 0 0  0.8761044122120449 0.4986103507265554 0  0.123895587787955 0.4986103507265554 0  0.4977780315167347 0.1712460112775354 0  0.8766966028666419 0.1233033971333581 0  0.876696602866642 0.876696602866642 0  0.1233033971333581 0.1233033971333581 0  0.09722823471845705 0.8125 0  0.1733635299290668 0.8970298609343814 0  0.8883491573041669 0.2643604571298573 0  0.8877958670922373 0.7326909680575229 0  0.1116508426958331 0.2643604571298573 0  0.7613054857070953 0.6770493230453046 0  0.6801259625863837 0.7571628005276329 0  0.7356395428701427 0.888349157304167 0  0.2870434624077082 0.7129565375922918 0  0.3239985581927791 0.2372835455990147 0  0.2643604571298573 0.1116508426958331 0  0.2372835455990147 0.3239985581927791 0  0.6770493230453046 0.2386945142929046 0  0.7627164544009852 0.323998558192779 0  0.7711783825050014 0.1049820981792812 0  0.2725459373371585 0.8711057510810419 0  0.5902113032590306 0.454035045157464 0  0.4 0.4841615559675463 0  0.5459649548425359 0.5902113032590307 0  0.4841615559675464 0.4 0  0.4364779946989695 0.5774553594345984 0  0.2094424738910378 0.5519742590219945 0  0.7884181597983735 0.545680948819098 0  0.7916309486261984 0.4423317750547929 0  0.2083690513738015 0.4423317750547928 0  0.1377152297367089 0.7214689337962261 0  0.3724220643060122 0.7667231914689607 0  0.5821571881989221 0.7829059068083607 0  0.4157539744496038 0.2170689396784469 0  0.5409524695020753 0.08616879159791818 0  0.5869360019724826 0.2215737033170064 0  0.4375 0.06620599162553127 0  0.5625 0.9337940083744687 0  0.4375 0.9337940083744687 0  0.6875 0.06723557102406837 0  0.2499395531834296 0.6316475649598042 0  0.9329302355459781 0.5668260734891706 0  0.06265660559348843 0.5625 0  0.9374766554583732 0.1875 0  0.1894585036512832 0.06453574456537571 0  0.06252334454162672 0.1875 0  0.8125 0.9374766554583732 0  0.9335159931895802 0.8086454127293836 0  0.08270718345412739 0.9172928165458726 0  1 0.4375 0  0.06620599162553126 0.4325371516276663 0  1 0.0625 0  0.0625 0 0  1 0.9375 0  0.06950343228460416 0.6723125235289175 0  0.3259857443889777 0.9337940083744687 0  0.7191746565244586 0.1683612776169283 0  0.2959339285794472 0.7935106260719075 0  0.9337940083744687 0.3301556823592318 0  0.3301556823592318 0.06620599162553127 0  0 0.3125 0  0.6698443176407682 0.9337940083744687 0  1 0.6875 0  0.4514179745184504 0.7681051994377992 0  0.9261600466505266 0.6660542894209697 0  0.2113067790653084 0.6983972891707992 0  0.8329491079070062 0.06224197342045822 0  0.6270583450435558 0.5201240648682854 0  0.4090362681283625 0.4090362681283625 0  0.5584023109229439 0.3853790110368519 0  0.9337940083744687 0.40625 0  0.07324623209099684 0.3288346047584531 0  0.3117551325404598 0.3117551325404598 0  0.8606467817412834 0.8055495025844367 0  0.6887443676947973 0.3126175950250973 0  0.7219615695492797 0.8167983050609489 0  0.8044516102100703 0.8617446741156497 0  0.1955261002843203 0.1379855058936445 0  0.1382553258843503 0.1955483897899297 0  0.864964129168482 0.1952824344718249 0  0.6890214694923545 0.6849900613410141 0  0.07036689372544221 0.7430195323441813 0  0.0610081267855168 0.07737906339275839 0  0.9226209366072415 0.06100812678551683 0  0.9375 1 0  0.2769867164855473 0.1826286472882077 0  0.1826286472882077 0.2769867164855473 0  0.8336942589933599 0.3113722988370891 0  0.8165996045639076 0.7229453499905518 0  0.4789032256944331 0.6331997907265303 0  0.928027627674455 0.928027627674455 0  0.6085539635780088 0.06803246462744715 0  0.7296616695371484 0.6170184654025564 0  0.2570921642211675 0.391537965092241 0  0.7429078357788326 0.391537965092241 0  0.7967102471178457 0.6123765304114542 0  0.5180602829388616 0.7642633874835528 0  0.2605767917084533 0.935431101588229 0  0.4426530087494659 0.8663257233940648 0  0.5031078702410127 0.8991159764650329 0  0.5635397733757957 0.8455036094012084 0  0.8168487399850823 0.1514019688168524 0  0.4801118462335195 0.235947052134749 0  0.4422512243961134 0.1332949828068699 0  0.5582688350300581 0.1484499412576641 0  0.5631529582154746 0.5124373560804079 0  0.1875 1 0  0.5625 0 0  0.3758834624346626 0.5473695252176364 0  0.6201733571084056 0.728293357425974 0  0.1950773621842676 0.3808166238455825 0  0.8038509890131255 0.3727374335763936 0  0.3798245843953486 0.2723323079875399 0  0.3125 0 0  1 0.3125 0  0.3125 1 0  0 0.9375 0  0.0625 1 0  1 0.8125 0  0 0.0625 0  0 0.1875 0  0.1875 0 0  0 0.5625 0  1 0.5625 0  0.6875 0 0  0.5625 1 0  0.4375 0 0  0 0.6875 0  0 0.8125 0  0.4375 1 0  1 0.1875 0  0.9375 0 0  0.8125 1 0  0 0.4375 0  0.8125 0 0  0.6875 1 0  0.9383440106555624 0.4732890453401784 0  0.8791303119139933 0.4363033221287315 0  0.1444512392930752 0.4379280227669263 0  0.06189415953695235 0.4945233499658612 0  0.1248307221083853 0.5608006559079415 0  0.8712917337729439 0.5603961643023064 0  0.6407130145563045 0.8064597233868442 0  0.9383956201930237 0.1207127300642634 0  0.1207127300642633 0.06160437980697626 0  0.2589714101778302 0.2589714101778302 0  0.4078810002027404 0.816282277059075 0  0.7335249541862354 0.2676464048005259 0  0.6236058768898869 0.2742769421274192 0  0.9361408778885455 0.8685833526525515 0  0.4523525636314596 0.4523525636314595 0  0.6091901890897117 0.5814075483590176 0  0.5305915372667812 0.4399607275806628 0  0.5368453594947724 0.2534456153880644 0  0.3368402664019491 0.1786913967232755 0  0.744354233684597 0.7410591217693031 0  0.6611460963325321 0.1813875727929229 0  0.8709807539684135 0.9415177409946952 0  0.1498845354982922 0.7814003916947225 0  0.1733259959143493 0.836838999098676 0  0.05949285952355048 0.8606735343455083 0  0.1196068565289332 0.8688958966991523 0  0.135882263395587 0.9422683540518523 0  0.1919679605442172 0.6426499327468673 0  0.8705109648256253 0.6783777913701057 0  0.9468331640430347 0.7223181349612111 0  0.946207936410807 0.2729893428020777 0  0.8354739380462149 0.2437630538914766 0  0.05740455559202427 0.2449026480192579 0  0.2463288041624848 0.05722112433740233 0  0.1389879594562489 0.3164983892719563 0  0.6802253176315923 0.8784719469268172 0  0.3197746823684077 0.1215280530731828 0  0.7270106571979222 0.946207936410807 0  0.3817428721944889 0.9437617040393581 0  0.4940138351881455 0.5598659120845905 0  0.06856169557878872 0.1323460221472362 0  0.0801981653187417 0.6165259933000324 0  0.1840705688005779 0.497396158704967 0  0.2422269262370963 0.4901657125075955 0  0.4946809509997099 0.1161807725421632 0  0.8160340485213248 0.6673703758264659 0  0.3229013559247006 0.843961150301146 0  0.7908640760641007 0.2764168336323853 0  0.7400356238292002 0.4619820920618612 0  0.2994295066106727 0.6581840436017291 0  0.3476318655993375 0.7114170370992797 0  0.254823922436606 0.7572801414879758 0  0.6161721588203841 0.9218580533667167 0  0.3838278411796159 0.07814194663328336 0  0.7780881100436 0.0489609348891321 0  0.3879773959447154 0.5990749599060994 0  0.7169705693158767 0.1135282121040537 0  0.4931036824297292 0.05609343994759985 0  0.2274028438539146 0.8410384589384519 0  0.05408606199325359 0.3796240941263634 0  0.1881791289058503 0.9474513174675495 0  0.654022783080669 0.4756051877045407 0  0.3610540400670985 0.4292034973097535 0  0.6106412769967681 0.4028729232792426 0  0.4292034973097534 0.3610540400670986 0  0.5243948122954591 0.3459772169193308 0  0.8176163584994709 0.494864101165278 0  0.1849053862157354 0.7430880371282902 0  0.2260006807635306 0.8957212194109766 0  0.5420241024555369 0.1969996312596072 0  0.8847424846773513 0.3154436134616551 0  0.3515522671730837 0.5018814071990108 0  0.4480669427956278 0.5042856208358317 0  0.5830020904061716 0.6247662633113538 0  0.5322072330140406 0.6444688164154293 0  0.4875733762956197 0.9491272980082162 0  0.4124933394834932 0.7346430813255372 0  0.2575836067360823 0.5776334086835068 0  0.1699825935391366 0.5836697869668019 0  0.4285287510606963 0.6402702240098512 0  0.7382464110532274 0.2162843507092721 0  0.2591562040152702 0.4422831813643485 0  0.1495555219004876 0.671537716356194 0  0.7414714852867809 0.5668796316264791 0  0.7496879295227002 0.5122358391284064 0  0.9475925750094287 0.6176715301748821 0  0.7689174383934929 0.1650980703578741 0  0.03862971350534853 0.78125 0  0.1876658619911977 0.3264067571242918 0  0.8336249883692137 0.4138354638226396 0  0.6712873365058349 0.1328385902064521 0  0.3252603682066182 0.7546537
[...]
<CellData  Scalars="f">
<DataArray  type="Float64"  Name="f"  format="ascii">0 1 1 1 1 0 1 1 0 1 1 1 0 1 1 0 1 0 1 1 1 0 1 0 1 1 0 0 0 0 0 0 0 0 0 0 0 0 0 0 1 1 0 0 0 0 0 0 0 0 0 0 0 0 0 0 0 0 0 0 0 0 0 0 0 0 0 0 0 0 0 0 0 0 0 0 0 0 0 0 0 0 0 0 0 0 0 0 0 0 0 0 0 0 0 0 0 0 0 0 0 0 0 0 0 0 0 1 0 0 0 0 0 0 0 0 0 0 0 0 0 0 0 0 0 0 0 1 1 0 1 0 1 1 1 1 1 0 0 0 0 0 0 0 0 0 0 0 0 0 0 0 0 0 1 0 0 0 0 0 0 0 0 0 0 0 0 0 0 0 0 0 0 0 0 0 0 0 0 0 0 0 0 0 0 0 0 0 0 0 0 0 0 0 0 0 1 1 1 1 1 1 0 0 0 0 0 0 0 0 1 0 0 0 0 0 0 0 0 0 0 0 0 0 0 0 0 0 0 0 0 0 0 0 0 0 0 0 0 0 1 1 0 0 0 0 0 0 1 0 0 0 0 0 0 0 0 0 0 0 0 0 0 0 0 0 0 0 0 0 0 0 1 1 0 0 1 1 0 0 0 0 0 0 0 0 0 0 0 0 0 0 0 0 0 0 0 0 0 0 0 0 0 0 0 0 0 0 0 0 0 0 0 0 0 0 0 0 0 0 0 0 0 0 0 0 0 0 0 0 0 0 0 0 0 0 0 0 0 0 0 0 0 0 0 0 0 0 0 0 0 0 0 0 1 1 1 1 1 1 0 0 0 0 0 0 0 0 0 0 0 0 0 0 0 0 0 0 0 0 0 0 0 0 0 0 0 0 0 0 0 0 0 0 0 0 0 0 0 0 0 0 1 1 0 0 0 0 0 0 1 0 0 0 0 0 0 0 0 0 0 0 0 0 0 0 0 0 0 0 0 0 0 0 1 1 0 0 0 0 0 0 0 0 0 1 0 0 1 1 1 1 1 1 1 0 0 0 0 0 0 0 0 0 0 1 1 1 1 1 1 1 1 0 0 0 0 0 0 0 1 1 0 0 0 0 0 0 0 0 0 0 0 0 0 0 0 0 0 0 0 0 0 0 0 0 0 1 1 0 0 0 0 0 1 0 0 0 0 0 0 0 0 0 0 0 0 0 0 0 0 0 0 0 0 0 0 0 0 0 0 0 0 0 0 0 0 0 0 0 0 0 0 0 0 0 0 0 0 0 0 0 0 0 0 0 0 0 0 0 0 0 0 0 0 0 0 0 0 0 0 0 0 0 0 0 0 0 0 0 0 0 0 0 0 0 0 0 0 0 0 0 0 0 0 0 0 0 0 0 0 0 0 0 0 0 0 0 0 0 0 0 0 0 0 0 0 0 0 0 0 0 0 0 0 0 0 0 0 0 0 0 0 0 0 0 0 0 0 1 1 0 0 0 0 0 0 0 0 0 0 0 0 0 0 0 0 1 1 0 0 0 0 0 0 0 0 0 0 0 1 1 0 0 0 0 1 1 0 0 1 0 1 1 0 0 1 1 0 0 0 0 0 0 0 0 0 0 0 0 0 0 0 0 0 0 0 0 0 0 0 0 0 0 0 0 0 0 0 0 0 0 0 0 0 0 0 0 0 0 0 0 0 0 0 0 0 0 0 0 0 0 0 0 0 1 1 0 0 0 0 1 1 1 1 0 0 0 0 1 1 0 0 1 1 0 1 0 0 0 0 0 0 0 0 0 0 0 0 0 0 0 0 0 0 0 0 1 1 0 0 0 0 0 0 0 0 0 0 0 0 0 0 0 0 0 0 0 0 0 0 0 0 0 0 0 0 0 0 0 0 0 0 0 0 0 0 0 0 0 0 0 0 1 1 0 0 0 0 0 0 1 1 1 1 1 1 1 1 1 1 1 1 1 1 0 0 0 0 0 0 0 0 0 0 0 1 0 0 0 0 0 0 0 0 0 0 0 0 0 0 0 0 0 0 0 0 0 0 0 0 0 0 0 0 0 0 0 0 0 0 0 0 0 0 0 0 0 0 0 0 0 0 0 0 0 0 0 0 0 0 0 0 0 0 0 0 0 0 0 1 1 0 0 0 0 1 1 0 0 0 0 0 0 0 0 1 1 1 1 0 0 0 0 0 0 0 0 0 0 0 0 0 0 0 0 0 0 0 0 0 0 0 0 0 0 0 0 0 0 0 0 0 0 0 0 0 0 0 0 0 0 0 0 0 0 0 0 0 0 0 0 0 0 0 0 0 0 0 0 0 0 0 0 0 0 0 0 1 1 1 1 0 0 0 0 0 0 0 0 0 0 0 0 0 0 0 0 0 0 0 0 1 1 0 0 0 0 0 0 0 0 0 0 0 0 0 0 0 0 0 0 0 0 0 0 0 0 0 0 0 0 0 0 1 1 1 1 0 0 1 1 1 1 0 0 0 0 0 0 0 0 0 0 0 0 0 0 0 0 0 0 1 1 0 0 0 0 0 0 0 0 0 0 0 0 0 0 1 1 0 1 0 0 0 0 0 0 0 0 0 0 0 0 1 1 1 1 1 1 0 0 0 0 0 0 0 0 0 0 0 0 0 0 0 0 0 0 0 0 0 0 0 0 0 0 0 0 0 0 0 0 0 0 0 0 0 0 0 0 0 0 1 1 1 1 0 0 0 0 0 0 0 0 0 0 0 0 0 0 0 0 0 0 1 1 1 1 0 0 0 0 0 0 </DataArray>
</CellData>
</Piece>
</UnstructuredGrid>
</VTKFile>