<?xml version="1.0"?>
<VTKFile type="UnstructuredGrid"  version="0.1"  >
<UnstructuredGrid>
<Piece  NumberOfPoints="85" NumberOfCells="128">
<Points>
<DataArray  type="Float64"  NumberOfComponents="3"  format="ascii">0 0 0  0.0625 0 0  0.125 0 0  0.1875 0 0  0.25 0 0  0.3125 0 0  0.375 0 0  0.4375 0 0  0.5 0 0  0.5625 0 0  0.625 0 0  0.6875 0 0  0.75 0 0  0.8125 0 0  0.875 0 0  0.9375 0 0  1 0 0  0 0.05 0  0.0625 0.05 0  0.125 0.05 0  0.1875 0.05 0  0.25 0.05 0  0.3125 0.05 0  0.375 0.05 0  0.4375 0.05 0  0.5 0.05 0  0.5625 0.05 0  0.625 0.05 0  0.6875 0.05 0  0.75 0.05 0  0.8125 0.05 0  0.875 0.05 0  0.9375 0.05 0  1 0.05 0  0 0.1 0  0.0625 0.1 0  0.125 0.1 0  0.1875 0.1 0  0.25 0.1 0  0.3125 0.1 0  0.375 0.1 0  0.4375 0.1 0  0.5 0.1 0  0.5625 0.1 0  0.625 0.1 0  0.6875 0.1 0  0.75 0.1 0  0.8125 0.1 0  0.875 0.1 0  0.9375 0.1 0  1 0.1 0  0 0.15 0  0.0625 0.15 0  0.125 0.15 0  0.1875 0.15 0  0.25 0.15 0  0.3125 0.15 0  0.375 0.15 0  0.4375 0.15 0  0.5 0.15 0  0.5625 0.15 0  0.625 0.15 0  0.6875 0.15 0  0.75 0.15 0  0.8125 0.15 0  0.875 0.15 0  0.9375 0.15 0  1 0.15 0  0 0.2 0  0.0625 0.2 0  0.125 0.2 0  0.1875 0.2 0  0.25 0.2 0  0.3125 0.2 0  0.375 0.2 0  0.4375 0.2 0  0.5 0.2 0  0.5625 0.2 0  0.625 0.2 0  0.6875 0.2 0  0.75 0.2 0  0.8125 0.2 0  0.875 0.2 0  0.9375 0.2 0  1 0.2 0  </DataArray>
</Points>
<Cells>
<DataArray  type="UInt32"  Name="connectivity"  format="ascii">0 1 18  0 17 18  1 2 19  1 18 19  2 3 20  2 19 20  3 4 21  3 20 21  4 5 22  4 21 22  5 6 23  5 22 23  6 7 24  6 23 24  7 8 25  7 24 25  8 9 26  8 25 26  9 10 27  9 26 27  10 11 28  10 27 28  11 12 29  11 28 29  12 13 30  12 29 30  13 14 31  13 30 31  14 15 32  14 31 32  15 16 33  15 32 33  17 18 35  17 34 35  18 19 36  18 35 36  19 20 37  19 36 37  20 21 38  20 37 38  21 22 39  21 38 39  22 23 40  22 39 40  23 24 41  23 40 41  24 25 42  24 41 42  25 26 43  25 42 43  26 27 44  26 43 44  27 28 45  27 44 45  28 29 46  28 45 46  29 30 47  29 46 47  30 31 48  30 47 48  31 32 49  31 48 49  32 33 50  32 49 50  34 35 52  34 51 52  35 36 53  35 52 53  36 37 54  36 53 54  37 38 55  37 54 55  38 39 56  38 55 56  39 40 57  39 56 57  40 41 58  40 57 58  41 42 59  41 58 59  42 43 60  42 59 60  43 44 61  43 60 61  44 45 62  44 61 62  45 46 63  45 62 63  46 47 64  46 63 64  47 48 65  47 64 65  48 49 66  48 65 66  49 50 67  49 66 67  51 52 69  51 68 69  52 53 70  52 69 70  53 54 71  53 70 71  54 55 72  54 71 72  55 56 73  55 72 73  56 57 74  56 73 74  57 58 75  57 74 75  58 59 76  58 75 76  59 60 77  59 76 77  60 61 78  60 77 78  61 62 79  61 78 79  62 63 80  62 79 80  63 64 81  63 80 81  64 65 82  64 81 82  65 66 83  65 82 83  66 67 84  66 83 84  </DataArray>
<DataArray  type="UInt32"  Name="offsets"  format="ascii">3 6 9 12 15 18 21 24 27 30 33 36 39 42 45 48 51 54 57 60 63 66 69 72 75 78 81 84 87 90 93 96 99 102 105 108 111 114 117 120 123 126 129 132 135 138 141 144 147 150 153 156 159 162 165 168 171 174 177 180 183 186 189 192 195 198 201 204 207 210 213 216 219 222 225 228 231 234 237 240 243 246 249 252 255 258 261 264 267 270 273 276 279 282 285 288 291 294 297 300 303 306 309 312 315 318 321 324 327 330 333 336 339 342 345 348 351 354 357 360 363 366 369 372 375 378 381 384 </DataArray>
<DataArray  type="UInt8"  Name="types"  format="ascii">5 5 5 5 5 5 5 5 5 5 5 5 5 5 5 5 5 5 5 5 5 5 5 5 5 5 5 5 5 5 5 5 5 5 5 5 5 5 5 5 5 5 5 5 5 5 5 5 5 5 5 5 5 5 5 5 5 5 5 5 5 5 5 5 5 5 5 5 5 5 5 5 5 5 5 5 5 5 5 5 5 5 5 5 5 5 5 5 5 5 5 5 5 5 5 5 5 5 5 5 5 5 5 5 5 5 5 5 5 5 5 5 5 5 5 5 5 5 5 5 5 5 5 5 5 5 5 5 </DataArray>
</Cells>
<PointData  Scalars="f_31"> 
<DataArray  type="Float64"  Name="f_31"  format="ascii">1.3835421900900527e-01  1.5278188569878406e-01  1.2718446397794317e-01  1.1227762285579024e-01  9.6363883256411570e-02  8.1269027208738992e-02  6.7302292448432791e-02  5.4581318337394477e-02  4.3166891697959293e-02  3.3078791912737313e-02  2.4331364836799926e-02  1.6938812782879415e-02  1.0936126522429954e-02  6.3010758632580603e-03  3.1581639635863191e-03  9.0036435343759024e-04  3.1625390322421722e-04  5.8589637244086043e-02  9.1086303544670039e-02  8.0016125411524322e-02  7.1318396677923918e-02  6.1117366261226796e-02  5.2114546615572757e-02  4.3756334699877011e-02  3.6180191206245528e-02  2.9393650394918126e-02  2.3395097194803136e-02  1.8170913060571968e-02  1.3693180733037599e-02  9.9170707913746811e-03  6.7586948669890942e-03  4.1941651952795587e-03  1.8602785646999248e-03  5.6208472231681803e-04  3.5480149558657262e-02  3.4918889481332108e-02  3.3860869359679149e-02  3.0717650024116760e-02  2.7849580458684554e-02  2.5425886927229125e-02  2.3016697180805037e-02  2.0721918464818075e-02  1.8471430850886331e-02  1.6242349137136340e-02  1.4012437302455395e-02  1.1765450700265235e-02  9.4906578978681665e-03  7.1845669971928594e-03  4.9219528673691403e-03  2.4604372739676131e-03  1.0553706641080833e-03  1.0128552322473314e-01  7.4742828793255348e-02  7.1636625810571952e-02  6.2212227519124710e-02  5.3376419708562439e-02  4.5548674811551268e-02  3.8307499926042439e-02  3.1771965668321939e-02  2.5896065156953703e-02  2.0680617909756907e-02  1.6111996324582156e-02  1.2175982471959380e-02  8.8482356168824283e-03  6.0827511633991041e-03  3.7706207817277998e-03  1.7554993688263787e-03  6.6592777972727078e-04  1.8372508028910933e-01  1.3658111733335190e-01  1.4042183687190707e-01  1.1556424736651022e-01  9.8629942814750446e-02  8.2512266265764828e-02  6.8071897050345900e-02  5.5047403791860496e-02  4.3404042684066883e-02  3.3155863700107598e-02  2.4303417140967926e-02  1.6851981115921504e-02  1.0801339504322154e-02  6.1419562355605100e-03  2.8351223173019471e-03  7.9075741388254608e-04  -1.4718025164538724e-04  </DataArray> 
</PointData> 
</Piece>
</UnstructuredGrid>
</VTKFile>