<?xml version="1.0"?>
<VTKFile type="UnstructuredGrid"  version="0.1"  >
<UnstructuredGrid>
<Piece  NumberOfPoints="5055" NumberOfCells="9852">
<Points>
<DataArray  type="Float64"  NumberOfComponents="3"  format="ascii">-0.5 0 0  -0.4957224306869052 -0.06526309611002579 0  -0.4829629131445342 -0.1294095225512604 0  -0.4619397662556434 -0.1913417161825449 0  -0.4330127018922194 -0.25 0  -0.3966766701456176 -0.3043807145043603 0  -0.3535533905932738 -0.3535533905932737 0  -0.3043807145043603 -0.3966766701456176 0  -0.2500000000000001 -0.4330127018922193 0  -0.1913417161825449 -0.4619397662556434 0  -0.1294095225512604 -0.4829629131445342 0  -0.06526309611002586 -0.4957224306869052 0  -3.061616997868383e-17 -0.5 0  0.0652630961100258 -0.4957224306869052 0  0.1294095225512603 -0.4829629131445342 0  0.1913417161825448 -0.4619397662556434 0  0.2499999999999999 -0.4330127018922194 0  0.3043807145043603 -0.3966766701456176 0  0.3535533905932737 -0.3535533905932738 0  0.3966766701456175 -0.3043807145043604 0  0.4330127018922194 -0.25 0  0.4619397662556434 -0.1913417161825449 0  0.4829629131445341 -0.1294095225512605 0  0.4957224306869052 -0.06526309611002599 0  0.5 0 0  0.4957224306869052 0.06526309611002579 0  0.4829629131445342 0.1294095225512604 0  0.4619397662556434 0.1913417161825449 0  0.4330127018922194 0.25 0  0.3966766701456176 0.3043807145043603 0  0.3535533905932738 0.3535533905932737 0  0.3043807145043603 0.3966766701456176 0  0.2500000000000001 0.4330127018922193 0  0.1913417161825449 0.4619397662556434 0  0.1294095225512604 0.4829629131445342 0  0.06526309611002586 0.4957224306869052 0  3.061616997868383e-17 0.5 0  -0.0652630961100258 0.4957224306869052 0  -0.1294095225512603 0.4829629131445342 0  -0.1913417161825448 0.4619397662556434 0  -0.2499999999999999 0.4330127018922194 0  -0.3043807145043603 0.3966766701456176 0  -0.3535533905932737 0.3535533905932738 0  -0.3966766701456175 0.3043807145043604 0  -0.4330127018922194 0.25 0  -0.4619397662556434 0.1913417161825449 0  -0.4829629131445341 0.1294095225512605 0  -0.4957224306869052 0.06526309611002599 0  -1.1 1.1 0  -1.1 0 0  1.1 0 0  1.1 1.1 0  -1.1 -1.1 0  1.1 -1.1 0  0 -1.1 0  0 1.1 0  -1.1 -0.55 0  0.55 -1.1 0  1.1 -0.55 0  1.1 0.55 0  -1.1 0.55 0  -0.55 -1.1 0  -0.55 1.1 0  0.55 1.1 0  0 5.551115123125783e-17 0  0.6694819597858304 -0.6694819597858304 0  -0.6694819597858304 -0.6694819597858304 0  -0.6694819597858305 0.6694819597858305 0  0.6694819597858304 0.6694819597858304 0  -1.1 -0.275 0  -0.8 0 0  0.275 1.1 0  0.275 -1.1 0  1.1 0.275 0  0.8 0 0  -0.275 -1.1 0  -0.275 1.1 0  -0.7701954846179946 0.3416529696871761 0  0.7701954846179945 -0.341652969687176 0  0.2637428830888284 0.7769614792047141 0  -0.7665382822386498 -0.3432404198425383 0  0.3432404198425383 -0.7665382822386498 0  0.7665382822386498 0.3432404198425383 0  -0.2637428830888282 0.7769614792047141 0  -0.2637428830888284 -0.7769614792047141 0  1.1 -0.8250000000000001 0  0.8250000000000001 -1.1 0  -0.8250000000000001 -1.1 0  -1.1 -0.8250000000000001 0  1.1 0.8250000000000001 0  0.8250000000000001 1.1 0  -1.1 0.8250000000000001 0  -0.8250000000000001 1.1 0  0.04214782219194284 -0.8 0  -1.1 0.275 0  1.1 -0.275 0  7.811250859127349e-17 0.7640583263840055 0  0.1883632520514128 -0.165190138541861 0  -0.2372404824576289 -0.08053229214504409 0  -0.04887723040621619 -0.2457224306869052 0  0.2083134180942049 0.1391905759624992 0  -0.165190138541861 0.1883632520514127 0  0.8482522188019279 -0.8482522188019278 0  -0.6875 -0.9063214927764134 0  -0.8754661100079266 -0.7729164500867769 0  0.9063214927764134 0.6875 0  0.6875 0.9063214927764134 0  -0.9063214927764134 0.6875 0  -0.772916450086777 0.8754661100079267 0  -0.434745073079679 0.6029213258079603 0  -0.5671433156126751 -0.4614785629272706 0  0.4779910354664286 0.5450443149126756 0  0.4779910354664286 -0.5450443149126756 0  0.5511236080409462 -0.8684728614584731 0  0.8685051084962375 -0.551239800740881 0  -0.5375337270868237 0.864701252703479 0  -0.8592542717736515 -0.5483810927464016 0  -0.4605911793076848 -0.8908775707434857 0  0.4605911793076848 0.8908775707434857 0  -0.447136572825597 -0.6496996859363231 0  -0.5723941960527998 0.4336715476757138 0  0.9006473679899588 0.9006473679899588 0  -0.1375 -0.9430761427482592 0  0.1375 0.9430761427482592 0  -0.1239693981755445 0.9320291631920028 0  -0.9500000000000001 0 0  0.9095025039176695 -0.1816790866352696 0  0.9076114494913327 0.1837420551003644 0  0.9544250336924416 0.4125 0  -0.9561510445655914 0.4125 0  -0.9108861138456437 -0.1997439379023763 0  -0.9521891526311487 0.9521891526311487 0  -0.9521891526311486 -0.9521891526311486 0  -0.9129282642501509 0.198630037681736 0  0.05675896031744711 0.2853465627359054 0  0.2070427402627164 -0.9123797585757226 0  -0.8059410078676683 0.5272967029558607 0  0.7991601918260022 0.5305032026349266 0  -1.1 -0.4125 0  0.9505721106785865 -0.3848949646116679 0  0.4125 -1.1 0  0.6875 -1.1 0  1.1 -0.6875 0  -0.6400696656990644 0.2172743739908047 0  0.6400696656990643 -0.2172743739908047 0  0.5619556185030268 -0.382605857259623 0  1.1 -0.9625000000000001 0  0.1798130385708833 -0.6673635978956919 0  0.6393101666668816 0.2170165588097276 0  0.588335415031637 0.3956289832024297 0  -0.6393101666668816 -0.2170165588097276 0  0.3112126317416398 -0.02039795355619062 0  -0.4125 1.1 0  -0.3672319233839062 0.9250755539307632 0  0.5007718428587234 0.7195448282981536 0  0.3080193218866878 0.6029434160650811 0  -0.1026278747005472 -0.6800092895109846 0  0.7038086450867456 -0.5006428070083565 0  -0.9352036658083256 -0.3685561204569775 0  0.3918406831927178 -0.9303674913591146 0  0.4998563177843978 -0.7100827296418082 0  0.302336300639341 0.937345224159607 0  -0.3023315619670949 -0.937315893410785 0  0.144186161922056 0.6539001709302114 0  -0.281662561561382 -0.6070122098982114 0  -0.1374252325777123 0.6569893640897344 0  -0.3100103944657285 0.08306703484234582 0  -0.2189156954915377 -0.2496255084708537 0  0.106724184022598 -0.3143993078182372 0  0.3186716438579666 -0.5812653035138478 0  -1.1 -0.6875 0  -0.6875 1.1 0  0.1557731144763352 -0.007654121832218308 0  0.65 0 0  -0.65 0 0  0.79108144162965 0.79108144162965 0  0.9625000000000001 -1.1 0  -0.7180312331987233 -0.4886862440482262 0  -0.5489322454777796 -0.7649850429786539 0  0.05720222737112289 -0.9550757661681979 0  -0.2856267625332946 0.6274346592748818 0  0.9500000000000001 0 0  0.7562500000000001 -0.9667023185204856 0  0.9667023185204857 -0.75625 0  0.6974930053794 -0.8261098571489558 0  0.8205665289980368 -0.6971676495897213 0  -0.09459382932071272 0.3292616726870975 0  -0.4125 -1.1 0  0.4125 1.1 0  -0.01700663327632726 0.1517011406374804 0  -0.4184997741714541 -0.4990735861252731 0  -0.4202318050607847 0.7596900992223493 0  0.620704433224335 0.534986509080995 0  0.03788182455241824 -0.6578117117863019 0  1.1 0.9625000000000001 0  0.9625000000000001 1.1 0  -0.9577650757899701 0.5548069766117808 0  0.937384455904089 0.5512264116125645 0  -0.61875 0.9783779734851443 0  -0.1725383110456027 0.04623150110809915 0  -0.9587609923426504 -0.6540494766544087 0  0.9526653711724881 -0.9526653711724881 0  -1.1 -0.1375 0  -0.9625000000000001 -1.1 0  -1.1 -0.9625000000000001 0  -1.1 0.9625000000000001 0  1.1 0.4125 0  1.1 0.1375 0  1.1 -0.4125 0  1.1 -0.1375 0  -0.1375 1.1 0  -0.1375 -1.1 0  -1.1 0.1375 0  -1.1 0.4125 0  -1.1 0.6875 0  0.6875 1.1 0  1.1 0.6875 0  -0.6875 -1.1 0  0.1375 1.1 0  -0.9625000000000001 1.1 0  0.1375 -1.1 0  0.2047745662600348 0.2871751695290292 0  0.3449261795563289 0.1143076614766126 0  0.3267872957104414 -0.1611536601647434 0  -0.7723437198460732 0.1471404749377748 0  -0.7750383764509619 -0.2074405871362164 0  0.7673901338767644 -0.1434942618777224 0  0.7663555398021786 0.1430876156900803 0  0.61875 -0.9845673500581017 0  -0.962046581199637 0.8141622191961174 0  -0.8141622191961174 -0.962046581199637 0  0.9822433626081786 -0.6227833520109576 0  -0.1343441079744162 -0.8096497376217842 0  -0.5510200644228667 0.7316152474503237 0  -0.6579875020299726 0.8096811716041893 0  0.6142882376278552 0.7927860780503757 0  0.01330325422696065 0.6320291631920028 0  0.1301138762342731 0.8064348700139674 0  -0.1309010914472934 0.790344042231147 0  -0.4137937232279135 0.4718413101029042 0  0.008353727781364931 0.8999564018497109 0  -0.3260938326413687 -0.1757009563610792 0  0.2463719832778865 -0.2809334043437394 0  -0.3644878182733504 -0.039148732467299 0  -0.1316340240415355 -0.3462376315012095 0  -0.2960813437610379 0.2161477059793169 0  -0.6685214272608829 0.5319857571451629 0  -0.5505826140847347 -0.3237066554841461 0  -0.4845024945907181 0.9854904892106795 0  0.0663121387554392 -0.1953492614217829 0  -0.09537257095461504 -0.1087515742773165 0  0.2189999290413288 -0.787029747284316 0  -0.9800021141136378 -0.4934279904378852 0  -0.5475775956352398 0.5540876638372716 0  0.3735374480715978 0.712255366943755 0  -0.246882533487751 0.9733969249203526 0  -0.700049050065542 -0.1112368835043586 0  -0.4249178754062116 -0.7719034407777352 0  0.699159471126391 0.4433255159088832 0  -0.006807076716937466 -0.3726011545158602 0  -0.7562500000000001 0.9976397820946089 0  0.9882962216023454 -0.5009250365709824 0  0.4630633743796542 0.4185673663256066 0  0.9749574506770921 0.7959763433608297 0  0.7959763433608297 0.9749574506770921 0  0.5693175009011545 0.9680666684570676 0  -0.5693175009011545 -0.9680666684570676 0  0.7883817186540267 0.6721816827614536 0  -0.741382068662751 -0.783117161169634 0  -0.7901657663226136 0.6487311292251834 0  0.09299837864472241 0.0976280456524873 0  0.9755139398593049 0.2890153192507708 0  0.5010099122450677 -0.9754084978565736 0  -0.6270633227368201 -0.5611748833874594 0  -0.6582981476336114 -0.3879532970314022 0  0.4429808294689555 -0.8260733770928365 0  0.8091019867200168 -0.4512534977621196 0  -0.2100996439598826 0.2990000297226496 0  -0.5481868658443307 0.3073201034286548 0  -0.9795010529736381 -0.8344466554858437 0  -0.7999403435373291 -0.6665015482013017 0  -0.8491450941644771 0.788244022764552 0  0.599
[...]
<CellData  Scalars="f_48"> 
<DataArray  type="Float64"  Name="f_48"  format="ascii">0.0000000000000000e+00   1.0000000000000000e+00   1.0000000000000000e+00   1.0000000000000000e+00   0.0000000000000000e+00   0.0000000000000000e+00   0.0000000000000000e+00   1.0000000000000000e+00   1.0000000000000000e+00   0.0000000000000000e+00   1.0000000000000000e+00   0.0000000000000000e+00   1.0000000000000000e+00   0.0000000000000000e+00   1.0000000000000000e+00   1.0000000000000000e+00   1.0000000000000000e+00   0.0000000000000000e+00   1.0000000000000000e+00   0.0000000000000000e+00   1.0000000000000000e+00   1.0000000000000000e+00   0.0000000000000000e+00   1.0000000000000000e+00   0.0000000000000000e+00   1.0000000000000000e+00   0.0000000000000000e+00   1.0000000000000000e+00   1.0000000000000000e+00   0.0000000000000000e+00   1.0000000000000000e+00   1.0000000000000000e+00   0.0000000000000000e+00   1.0000000000000000e+00   0.0000000000000000e+00   1.0000000000000000e+00   0.0000000000000000e+00   1.0000000000000000e+00   1.0000000000000000e+00   0.0000000000000000e+00   1.0000000000000000e+00   0.0000000000000000e+00   1.0000000000000000e+00   0.0000000000000000e+00   1.0000000000000000e+00   0.0000000000000000e+00   1.0000000000000000e+00   0.0000000000000000e+00   1.0000000000000000e+00   0.0000000000000000e+00   1.0000000000000000e+00   1.0000000000000000e+00   0.0000000000000000e+00   1.0000000000000000e+00   0.0000000000000000e+00   1.0000000000000000e+00   1.0000000000000000e+00   1.0000000000000000e+00   1.0000000000000000e+00   0.0000000000000000e+00   1.0000000000000000e+00   0.0000000000000000e+00   1.0000000000000000e+00   0.0000000000000000e+00   1.0000000000000000e+00   0.0000000000000000e+00   1.0000000000000000e+00   0.0000000000000000e+00   1.0000000000000000e+00   0.0000000000000000e+00   1.0000000000000000e+00   0.0000000000000000e+00   1.0000000000000000e+00   1.0000000000000000e+00   0.0000000000000000e+00   1.0000000000000000e+00   0.0000000000000000e+00   1.0000000000000000e+00   1.0000000000000000e+00   0.0000000000000000e+00   0.0000000000000000e+00   0.0000000000000000e+00   0.0000000000000000e+00   0.0000000000000000e+00   0.0000000000000000e+00   0.0000000000000000e+00   0.0000000000000000e+00   0.0000000000000000e+00   0.0000000000000000e+00   0.0000000000000000e+00   0.0000000000000000e+00   0.0000000000000000e+00   0.0000000000000000e+00   0.0000000000000000e+00   1.0000000000000000e+00   1.0000000000000000e+00   0.0000000000000000e+00   0.0000000000000000e+00   0.0000000000000000e+00   0.0000000000000000e+00   0.0000000000000000e+00   0.0000000000000000e+00   0.0000000000000000e+00   1.0000000000000000e+00   0.0000000000000000e+00   0.0000000000000000e+00   0.0000000000000000e+00   0.0000000000000000e+00   0.0000000000000000e+00   0.0000000000000000e+00   0.0000000000000000e+00   0.0000000000000000e+00   0.0000000000000000e+00   0.0000000000000000e+00   0.0000000000000000e+00   0.0000000000000000e+00   0.0000000000000000e+00   1.0000000000000000e+00   0.0000000000000000e+00   0.0000000000000000e+00   0.0000000000000000e+00   0.0000000000000000e+00   0.0000000000000000e+00   0.0000000000000000e+00   0.0000000000000000e+00   0.0000000000000000e+00   0.0000000000000000e+00   0.0000000000000000e+00   0.0000000000000000e+00   0.0000000000000000e+00   0.0000000000000000e+00   0.0000000000000000e+00   0.0000000000000000e+00   0.0000000000000000e+00   0.0000000000000000e+00   0.0000000000000000e+00   0.0000000000000000e+00   0.0000000000000000e+00   0.0000000000000000e+00   0.0000000000000000e+00   0.0000000000000000e+00   0.0000000000000000e+00   0.0000000000000000e+00   1.0000000000000000e+00   0.0000000000000000e+00   1.0000000000000000e+00   1.0000000000000000e+00   1.0000000000000000e+00   1.0000000000000000e+00   1.0000000000000000e+00   1.0000000000000000e+00   1.0000000000000000e+00   1.0000000000000000e+00   1.0000000000000000e+00   1.0000000000000000e+00   0.0000000000000000e+00   0.0000000000000000e+00   0.0000000000000000e+00   0.0000000000000000e+00   0.0000000000000000e+00   0.0000000000000000e+00   0.0000000000000000e+00   0.0000000000000000e+00   0.0000000000000000e+00   0.0000000000000000e+00   0.0000000000000000e+00   0.0000000000000000e+00   0.0000000000000000e+00   0.0000000000000000e+00   0.0000000000000000e+00   0.0000000000000000e+00   0.0000000000000000e+00   0.0000000000000000e+00   0.0000000000000000e+00   0.0000000000000000e+00   0.0000000000000000e+00   0.0000000000000000e+00   0.0000000000000000e+00   0.0000000000000000e+00   0.0000000000000000e+00   0.0000000000000000e+00   0.0000000000000000e+00   0.0000000000000000e+00   0.0000000000000000e+00   0.0000000000000000e+00   0.0000000000000000e+00   0.0000000000000000e+00   0.0000000000000000e+00   0.0000000000000000e+00   0.0000000000000000e+00   0.0000000000000000e+00   0.0000000000000000e+00   0.0000000000000000e+00   0.0000000000000000e+00   0.0000000000000000e+00   0.0000000000000000e+00   0.0000000000000000e+00   0.0000000000000000e+00   1.0000000000000000e+00   1.0000000000000000e+00   0.0000000000000000e+00   0.0000000000000000e+00   0.0000000000000000e+00   0.0000000000000000e+00   0.0000000000000000e+00   0.0000000000000000e+00   0.0000000000000000e+00   0.0000000000000000e+00   0.0000000000000000e+00   0.0000000000000000e+00   0.0000000000000000e+00   0.0000000000000000e+00   0.0000000000000000e+00   0.0000000000000000e+00   0.0000000000000000e+00   0.0000000000000000e+00   0.0000000000000000e+00   0.0000000000000000e+00   0.0000000000000000e+00   0.0000000000000000e+00   0.0000000000000000e+00   0.0000000000000000e+00   0.0000000000000000e+00   0.0000000000000000e+00   0.0000000000000000e+00   0.0000000000000000e+00   0.0000000000000000e+00   0.0000000000000000e+00   0.0000000000000000e+00   0.0000000000000000e+00   1.0000000000000000e+00   1.0000000000000000e+00   0.0000000000000000e+00   0.0000000000000000e+00   0.0000000000000000e+00   0.0000000000000000e+00   0.0000000000000000e+00   0.0000000000000000e+00   0.0000000000000000e+00   0.0000000000000000e+00   0.0000000000000000e+00   0.0000000000000000e+00   0.0000000000000000e+00   0.0000000000000000e+00   0.0000000000000000e+00   0.0000000000000000e+00   0.0000000000000000e+00   0.0000000000000000e+00   0.0000000000000000e+00   0.0000000000000000e+00   0.0000000000000000e+00   0.0000000000000000e+00   0.0000000000000000e+00   0.0000000000000000e+00   0.0000000000000000e+00   0.0000000000000000e+00   1.0000000000000000e+00   1.0000000000000000e+00   1.0000000000000000e+00   1.0000000000000000e+00   1.0000000000000000e+00   1.0000000000000000e+00   0.0000000000000000e+00   0.0000000000000000e+00   0.0000000000000000e+00   1.0000000000000000e+00   1.0000000000000000e+00   0.0000000000000000e+00   0.0000000000000000e+00   0.0000000000000000e+00   0.0000000000000000e+00   0.0000000000000000e+00   0.0000000000000000e+00   0.0000000000000000e+00   0.0000000000000000e+00   0.0000000000000000e+00   0.0000000000000000e+00   0.0000000000000000e+00   0.0000000000000000e+00   0.0000000000000000e+00   0.0000000000000000e+00   0.0000000000000000e+00   0.0000000000000000e+00   0.0000000000000000e+00   0.0000000000000000e+00   0.0000000000000000e+00   0.0000000000000000e+00   0.0000000000000000e+00   0.0000000000000000e+00   0.0000000000000000e+00   0.0000000000000000e+00   0.0000000000000000e+00   1.0000000000000000e+00   1.0000000000000000e+00   0.0000000000000000e+00   0.0000000000000000e+00   1.0000000000000000e+00   1.0000000000000000e+00   0.0000000000000000e+00   0.0000000000000000e+00   0.0000000000000000e+00   0.0000000000000000e+00   0.0000000000000000e+00   0.0000000000000000e+00   0.0000000000000000e+00   0.0000000000000000e+00   0.0000000000000000e+00   0.0000000000000000e+00   0.0000000000000000e+00   0.0000000000000000e+00   0.0000000000000000e+00   0.0000000000000000e+00   0.0000000000000000e+00   1.0000000000000000e+00   1.0000000000000000e+00   0.0000000000000000e+00   0.0000000000000000e+00   0.0000000000000000e+00   0.0000000000000000e+00   0.0000000000000000e+00   0.0000000000000000e+00   0.0000000000000000e+00   0.0000000000000000e+00   0.0000000000000000e+00   0.0000000000000000e+00   0.0000000000000000e+00   0.0000000000000000e+00   0.0000000000000000e+00   0.0000000000000000e+00   0.0000000000000000e+00   0.0000000000000000e+00   0.0000000000000000e+00   0.0000000000000000e+00   0.0000000000000000e+00   0.0000000000000000e+00   0.0000000000000000e+00   0.0000000000000000e+00   0.0000000000000000e+00   0.0000000000000000e+00   0.0000000000000000e+00   0.0000000000000000e+00   0.0000000000000000e+00   0.0000000000000000e+00   0.0000000000000000e+00   1.0000000000000000e+00   1.0000000000000000e+00   1.0000000000000000e+00   1.0000000000000000e+00   0.0000000000000000e+00   1.0000000000000000e+00   0.0000000000000000e+00   0.0000000000000000e+00   0.0000000000000000e+00   0.0000000000000000e+00   0.0000000000000000e+00   0.0000000000000000e+00   0.0000000000000000e+00   0.0000000000000000e+00   0.0000000000000000e+00   0.0000000000000000e+00   0.0000000000000000e+00   0.0000000000000000e+00   0.0000000000000000e+00   0.0000000000000000e+00   0.0000000000000000e+00   0.0000000000000000e+00   0.0000000000000000e+00   0.0000000000000000e+00   0.0000000000000000e+00   0.0000000000000000e+00   0.0000000000000000e+00   0.0000000000000000e+00   0.0000000000000000e+00   0.0000000000000000e+00   0.0000000000000000e+00   0.0000000000000000e+00   0.0000000000000000e+00   0.0000000000000000e+00   0.0000000000000000e+00   0.0000000000000000e+00   0.0000000000000000e+00   0.0000000000000000e+00   1.0000000000000000e+00   1.0000000000000000e+00   1.0000000000000000e+00   1.0000000000000000e+00   1.0000000000000000e+00   1.0000000000000000e+00   1.0000000000000000e+00   1.0000000000000000e+00   1.0000000000000000e+00   1.0000000000000000e+00   0.0000000000000000e+00   0.0000000000000000e+00   0.0000000000000000e+00   0.0000000000000000e+00   0.0000000000000000e+00   0.0000000000000000e+00   1.0000000000000000e+00   1.0000000000000000e+00   1.0000000000000000e+00   1.0000000000000000e+00   0.0000000000000000e+00   0.0000000000000000e+00   0.0000000000000000e+00   0.0000000000000000e+00   0.0000000000000000e+00   0.0000000000000000e+00   0.0000000000000000e+00   0.0000000000000000e+00   0.0000000000000000e+00   0.0000000000000000e+00   1.0000000000000000e+00   0.0000000000000000e+00   0.0000000000000000e+00   0.0000000000000000e+00   0.0000000000000000e+00   0.0000000000000000e+00   1.0000000000000000e+00   0.0000000000000000e+00   0.0000000000000000e+00   0.0000000000000000e+00   0.0000000000000000e+00   0.0000000000000000e+00   0.0000000000000000e+00   0.0000000000000000e+00   0.0000000000000000e+00   0.0000000000000000e+00   0.0000000000000000e+00   0.0000000000000000e+00   0.0000000000000000e+00   0.0000000000000000e+00   0.0000000000000000e+00   0.0000000000000000e+00   0.0000000000000000e+00   1.0000000000000000e+00   1.0000000000000000e+00   0.0000000000000000e+00   0.0000000000000000e+00   0.0000000000000000e+00   0.0000000000000000e+00   0.0000000000000000e+00   0.0000000000000000e+00   0.0000000000000000e+00   0.0000000000000000e+00   0.0000000000000000e+00   0.0000000000000000e+00   0.0000000000000000e+00   1.0000000000000000e+00   1.0000000000000000e+00   0.0000000000000000e+00   0.0000000000000000e+00   0.0000000000000000e+00   0.0000000000000000e+00   0.0000000000000000e+00   0.0000000000000000e+00   0.0000000000000000e+00   0.0000000000000000e+00   0.0000000000000000e+00   0.0000000000000000e+00   0.0000000000000000e+00   0.0000000000000000e+00   0.0000000000000000e+00   0.0000000000000000e+00   0.0000000000000000e+00   0.0000000000000000e+00   0.0000000000000000e+00   0.0000000000000000e+00   0.0000000000000000e+00   0.0000000000000000e+00   0.0000000000000000e+00   0.0000000000000000e+00   0.0000000000000000e+00   0.0000000000000000e+00   0.0000000000000000e+00   0.0000000000000000e+00   0.0000000000000000e+00   0.0000000000000000e+00   0.0000000000000000e+00   0.0000000000000000e+00   0.0000000000000000e+00   0.0000000000000000e+00   0.0000000000000000e+00   0.0000000000000000e+00   1.0000000000000000e+00   1.0000000000000000e+00   0.0000000000000000e+00   0.0000000000000000e+00   1.0000000000000000e+00   0.0000000000000000e+00   1.0000000000000000e+00   1.0000000000000000e+00   0.0000000000000000e+00   0.0000000000000000e+00   0.0000000000000000e+00   0.0000000000000000e+00   0.0000000000000000e+00   0.0000000000000000e+00   0.0000000000000000e+00   0.0000000000000000e+00   0.0000000000000000e+00   0.0000000000000000e+00   0.0000000000000000e+00   0.0000000000000000e+00   0.0000000000000000e+00   0.0000000000000000e+00   0.0000000000000000e+00   0.0000000000000000e+00   0.0000000000000000e+00   0.0000000000000000e+00   0.0000000000000000e+00   0.0000000000000000e+00   0.0000000000000000e+00   0.0000000000000000e+00   0.0000000000000000e+00   0.0000000000000000e+00   0.0000000000000000e+00   0.0000000000000000e+00   0.0000000000000000e+00   0.0000000000000000e+00   0.0000000000000000e+00   0.0000000000000000e+00   0.0000000000000000e+00   0.0000000000000000e+00   0.0000000000000000e+00   0.0000000000000000e+00   0.0000000000000000e+00   0.0000000000000000e+00   0.0000000000000000e+00   0.0000000000000000e+00   0.0000000000000000e+00   0.0000000000000000e+00   0.0000000000000000e+00   0.0000000000000000e+00   0.0000000000000000e+00   0.0000000000000000e+00   1.0000000000000000e+00   1.0000000000000000e+00   0.0000000000000000e+00   0.0000000000000000e+00   0.0000000000000000e+00   0.0000000000000000e+00   0.0000000000000000e+00   0.0000000000000000e+00   0.0000000000000000e+00   0.0000000000000000e+00   0.0000000000000000e+00   0.0000000000000000e+00   0.0000000000000000e+00   0.0000000000000000e+00   0.0000000000000000e+00   0.0000000000000000e+00   0.0000000000000000e+00   0.0000000000000000e+00   0.0000000000000000e+00   0.0000000000000000e+00   0.0000000000000000e+00   0.0000000000000000e+00   0.0000000000000000e+00   0.0000000000000000e+00   0.0000000000000000e+00   0.0000000000000000e+00   1.0000000000000000e+00   1.0000000000000000e+00   0.0000000000000000e+00   0.0000000000000000e+00   0.0000000000000000e+00   0.0000000000000000e+00   0.0000000000000000e+00   0.0000000000000000e+00   0.0000000000000000e+00   0.0000000000000000e+00   0.0000000000000000e+00   0.0000000000000000e+00   0.0000000000000000e+00   0.0000000000000000e+00   0.0000000000000000e+00   0.0000000000000000e+00   0.0000000000000000e+00   1.0000000000000000e+00   1.0000000000000000e+00   1.0000000000000000e+00   1.0000000000000000e+00   0.0000000000000000e+00   0.0000000000000000e+00   1.0000000000000000e+00   0.0000000000000000e+00   0.0000000000000000e+00   0.0000000000000000e+00   0.0000000000000000e+00   0.0000000000000000e+00   0.0000000000000000e+00   0.0000000000000000e+00   0.0000000000000000e+00   0.0000000000000000e+00   0.0000000000000000e+00   0.0000000000000000e+00   0.0000000000000000e+00   0.0000000000000000e+00   0.0000000000000000e+00   0.0000000000000000e+00   0.0000000000000000e+00   0.0000000000000000e+00   0.0000000000000000e+00   0.0000000000000000e+00   0.0000000000000000e+00   0.0000000000000000e+00   0.0000000000000000e+00   0.0000000000000000e+00   0.0000000000000000e+00   0.0000000000000000e+00   0.0000000000000000e+00   0.0000000000000000e+00   0.0000000000000000e+00   0.0000000000000000e+00   0.0000000000000000e+00   0.0000000000000000e+00   0.0000000000000000e+00   0.0000000000000000e+00   0.0000000000000000e+00   0.0000000000000000e+00   0.0000000000000000e+00   0.0000000000000000e+00   0.0000000000000000e+00   0.0000000000000000e+00   0.0000000000000000e+00   0.0000000000000000e+00   0.0000000000000000e+00   0.0000000000000000e+00   0.0000000000000000e+00   0.0000000000000000e+00   0.0000000000000000e+00   0.0000000000000000e+00   1.0000000000000000e+00   1.0000000000000000e+00   0.0000000000000000e+00   0.0000000000000000e+00   0.0000000000000000e+00   0.0000000000000000e+00   0.0000000000000000e+00   0.0000000000000000e+00   0.0000000000000000e+00   0.0000000000000000e+00   0.0000000000000000e+00   0.0000000000000000e+00   0.0000000000000000e+00   0.0000000000000000e+00   0.0000000000000000e+00   0.0000000000000000e+00   0.0000000000000000e+00   0.0000000000000000e+00   0.0000000000000000e+00   0.0000000000000000e+00   0.0000000000000000e+00   0.0000000000000000e+00   1.0000000000000000e+00   1.0000000000000000e+00   1.0000000000000000e+00   1.0000000000000000e+00   0.0000000000000000e+00   0.0000000000000000e+00   0.0000000000000000e+00   0.0000000000000000e+00   0.0000000000000000e+00   0.0000000000000000e+00   1.0000000000000000e+00   1.0000000000000000e+00   0.0000000000000000e+00   0.0000000000000000e+00   1.0000000000000000e+00   1.0000000000000000e+00   0.0000000000000000e+00   0.0000000000000000e+00   0.0000000000000000e+00   0.0000000000000000e+00   1.0000000000000000e+00   1.0000000000000000e+00   1.0000000000000000e+00   1.0000000000000000e+00   1.0000000000000000e+00   1.0000000000000000e+00   1.0000000000000000e+00   1.0000000000000000e+00   1.0000000000000000e+00   1.0000000000000000e+00   0.0000000000000000e+00   0.0000000000000000e+00   0.0000000000000000e+00   0.0000000000000000e+00   0.0000000000000000e+00   0.0000000000000000e+00   0.0000000000000000e+00   0.0000000000000000e+00   0.0000000000000000e+00   0.0000000000000000e+00   0.0000000000000000e+00   0.0000000000000000e+00   0.0000000000000000e+00   0.0000000000000000e+00   0.0000000000000000e+00   0.0000000000000000e+00   0.0000000000000000e+00   0.0000000000000000e+00   0.0000000000000000e+00   1.0000000000000000e+00   1.0000000000000000e+00   0.0000000000000000e+00   0.0000000000000000e+00   0.0000000000000000e+00   0.0000000000000000e+00   0.0000000000000000e+00   0.0000000000000000e+00   0.0000000000000000e+00   0.0000000000000000e+00   0.0000000000000000e+00   0.0000000000000000e+00   0.0000000000000000e+00   0.0000000000000000e+00   0.0000000000000000e+00   0.0000000000000000e+00   0.0000000000000000e+00   0.0000000000000000e+00   0.0000000000000000e+00   0.0000000000000000e+00   0.0000000000000000e+00   0.0000000000000000e+00   0.0000000000000000e+00   0.0000000000000000e+00   0.0000000000000000e+00   0.0000000000000000e+00   0.0000000000000000e+00   0.0000000000000000e+00   1.0000000000000000e+00   1.0000000000000000e+00   1.0000000000000000e+00   1.0000000000000000e+00   0.0000000000000000e+00   0.0000000000000000e+00   1.0000000000000000e+00   1.0000000000000000e+00   0.0000000000000000e+00   0.0000000000000000e+00   0.0000000000000000e+00   0.0000000000000000e+00   0.0000000000000000e+00   0.0000000000000000e+00   0.0000000000000000e+00   0.0000000000000000e+00   0.0000000000000000e+00   0.0000000000000000e+00   0.0000000000000000e+00   0.0000000000000000e+00   0.0000000000000000e+00   0.0000000000000000e+00   0.0000000000000000e+00   0.0000000000000000e+00   0.0000000000000000e+00   0.0000000000000000e+00   0.0000000000000000e+00   0.0000000000000000e+00   0.0000000000000000e+00   0.0000000000000000e+00   0.0000000000000000e+00   0.0000000000000000e+00   0.0000000000000000e+00   0.0000000000000000e+00   0.0000000000000000e+00   0.0000000000000000e+00   0.0000000000000000e+00   0.0000000000000000e+00   0.0000000000000000e+00   0.0000000000000000e+00   0.0000000000000000e+00   0.0000000000000000e+00   0.0000000000000000e+00   0.0000000000000000e+00   0.0000000000000000e+00   1.0000000000000000e+00   1.0000000000000000e+00   0.0000000000000000e+00   0.0000000000000000e+00   0.0000000000000000e+00   0.0000000000000000e+00   0.0000000000000000e+00   0.0000000000000000e+00   0.0000000000000000e+00   0.0000000000000000e+00   0.0000000000000000e+00   0.0000000000000000e+00   0.0000000000000000e+00   0.0000000000000000e+00   0.0000000000000000e+00   0.0000000000000000e+00   0.0000000000000000e+00   0.0000000000000000e+00   0.0000000000000000e+00   0.00000000000000