<?xml version="1.0"?>
<VTKFile type="UnstructuredGrid"  version="0.1"  >
<UnstructuredGrid>
<Piece  NumberOfPoints="1848" NumberOfCells="3550">
<Points>
<DataArray  type="Float64"  NumberOfComponents="3"  format="ascii">-0.5647289140121814 -0.5148184282296806 0  -0.5738758794709186 -0.6295118519860184 0  -0.5414938120988851 -0.7170536912993035 0  -0.4619744698998414 -0.7461143871446099 0  -0.3573416565994497 -0.7176387881239428 0  -0.2553048409630619 -0.6590177615536016 0  -0.1690148457950141 -0.5940255667005798 0  -0.09974400812917499 -0.5335833149968118 0  -0.04453768845981301 -0.4806382035030679 0  -2.663382251673325e-17 -0.4349633304112949 0  0.03664156249295005 -0.3954254335863858 0  0.06744681880122363 -0.3608086123362801 0  0.09390856033913296 -0.3300543541668852 0  0.1171110115019307 -0.3022983675599273 0  0.1378531160078902 -0.2768463773645698 0  0.1567361033734041 -0.2531374985661777 0  0.1742241342013972 -0.2307100390645337 0  0.1906863893855178 -0.2091730048687078 0  0.206426801086597 -0.1881828938505359 0  0.2217057017191109 -0.1674243742758016 0  0.2367563013733438 -0.1465932954878121 0  0.2517980096225921 -0.1253805108865454 0  0.2670480577244196 -0.1034549687190522 0  0.2827325366125887 -0.0804443423912367 0  0.2990977486073078 -0.05591105911676318 0  0.3164225663951524 -0.02932086875543553 0  0.3350321051414988 0 0  0.355311988826463 0.03292450443816741 0  0.3777196863677262 0.07060804640759238 0  0.4027818515322424 0.1146013174211845 0  0.4310466796525063 0.1669883733283692 0  0.4629088346080094 0.2305012111256976 0  0.4980989388368103 0.3084098057771531 0  0.5343738044433499 0.4035403651984446 0  0.5647289140121813 0.5148184282296804 0  0.5738758794709186 0.6295118519860184 0  0.5414938120988851 0.7170536912993035 0  0.4619744698998415 0.7461143871446099 0  0.3573416565994498 0.717638788123943 0  0.2553048409630619 0.6590177615536017 0  0.1690148457950141 0.59402556670058 0  0.09974400812917499 0.5335833149968118 0  0.04453768845981301 0.4806382035030679 0  2.663382251673325e-17 0.4349633304112949 0  -0.03664156249295005 0.3954254335863858 0  -0.06744681880122363 0.3608086123362801 0  -0.09390856033913296 0.3300543541668852 0  -0.1171110115019307 0.3022983675599273 0  -0.1378531160078902 0.2768463773645698 0  -0.1567361033734041 0.2531374985661777 0  -0.1742241342013972 0.2307100390645337 0  -0.1906863893855178 0.2091730048687078 0  -0.206426801086597 0.1881828938505359 0  -0.2217057017191109 0.1674243742758017 0  -0.2367563013733438 0.1465932954878121 0  -0.2517980096225921 0.1253805108865454 0  -0.2670480577244196 0.1034549687190522 0  -0.2827325366125887 0.0804443423912367 0  -0.2990977486073078 0.05591105911676318 0  -0.3164225663951524 0.02932086875543553 0  -0.3350321051414988 0 0  -0.355311988826463 -0.03292450443816741 0  -0.3777196863677262 -0.07060804640759238 0  -0.4027818515322423 -0.1146013174211845 0  -0.4310466796525063 -0.1669883733283692 0  -0.4629088346080095 -0.2305012111256977 0  -0.4980989388368103 -0.3084098057771531 0  -0.53437380444335 -0.4035403651984446 0  -1.1 1.1 0  -1.1 0 0  1.1 0 0  1.1 1.1 0  -1.1 -1.1 0  1.1 -1.1 0  -1.1 -0.55 0  0.6443846341202892 0 0  1.1 0.55 0  0 1.1 0  -0.6443846341202892 0 0  0 -1.1 0  0.489708369630894 0 0  0.55 1.1 0  -0.489708369630894 0 0  -0.55 -1.1 0  0.4123702373861964 0 0  -0.4123702373861964 0 0  0.3737011712638476 0 0  -0.3737011712638476 0 0  -0.55 1.1 0  0.55 -1.1 0  -1.1 0.55 0  1.1 -0.55 0  -0.5774997023113853 0.563200067536401 0  0.5774997023113853 -0.563200067536401 0  -0.2332959789970062 0.7719416904508294 0  0.275 -0.8168076791700993 0  -0.8250000000000001 1.1 0  0.8250000000000001 -1.1 0  -1.1 0.275 0  -1.1 -0.275 0  1.1 0.275 0  1.1 -0.275 0  -1.1 -0.8250000000000001 0  1.1 0.8250000000000001 0  1.1 -0.8250000000000001 0  -1.1 0.8250000000000001 0  -0.8250000000000001 -1.1 0  0.8250000000000001 1.1 0  -0.7735600213091911 0.3009123255131874 0  0.7735600213091911 -0.3009123255131874 0  0.790465647011614 -0.790465647011614 0  -0.790465647011614 0.790465647011614 0  0.8402456871579467 0.4125000000000001 0  -0.8402456871579467 -0.4125 0  -0.8126936734246126 -0.8126936734246126 0  0.8208256229673785 0.7706195701597452 0  0.004207785023098265 0.005572007870803752 0  -0.4882745479923623 0.285687820852216 0  0.4882745479923623 -0.285687820852216 0  -0.275 -1.1 0  0.275 -1.1 0  -0.275 1.1 0  0.275 1.1 0  0.2954143468917513 -0.5301963341369414 0  -0.5029851570495844 0.8284871216795358 0  -0.3072275580071103 0.505693356273559 0  -0.004671972982655592 -0.8203446843944892 0  0.03275370068619696 0.8297250573246426 0  0.8721923170601447 0 0  -0.8721923170601447 0 0  0.1594795657822183 0.2189084230795097 0  -0.1622770796992438 -0.2224771401683081 0  0.5345835483611487 -0.8398519816076525 0  -0.8255361201452336 0.544186007220308 0  0.8467428548626579 -0.5434536802116666 0  0.7116569507892534 0.2208069679162278 0  -0.7116569507892534 -0.2208069679162278 0  0.3168736600923183 0.4319954054811216 0  -0.3168736600923185 -0.4319954054811218 0  0.6875 0.9370259287209942 0  0.1331923285142307 -0.662674508611629 0  -0.1241638029291845 0.5982491820865834 0  -0.1319915193486402 0.9468822707661264 0  -0.779018513048252 -0.609329980441554 0  0.3589937237759315 0.9180413235997378 0  -0.358993723775931 -0.9180413235997377 0  0.1369253534853015 -0.9578458167153653 0  -0.9597938061793148 0.6875 0  -0.9127571065080829 -0.198253452764127 0  0.9127571065080829 0.198253452764127 0  -0.6875 0.9586470462815765 0  0.420796959401988 -0.6805459387350318 0  0.6875 -0.9613209066492647 0  -0.6270707768164659 -0.9067204406527285 0  -0.9619728773445916 -0.6875 0  -0.1628925656019308 -0.9378847646225317 0  0.9314318777835778 -0.9314318777835779 0  -0.9625000000000001 -1.1 0  -1.1 -0.9625000000000001 0  -0.9314318777835778 0.9314318777835779 0  0.9339031576368003 0.9339031576368003 0  -0.9449970712459248 0.3914735827955433 0  0.9574104035550686 -0.6985841342924866 0  -0.415479075231907 0.6607997261760898 0  1.1 -0.4125 0  0.4125 -1.1 0  0.1375 1.1 0  0.90946506562952 0.5958399594893536 0  -1.1 0.1375 0  -0.9179672228917661 0.1816248725012442 0  0.9286166718446256 -0.1851155224668505 0  -0.3420187653464757 0.9248003777358115 0  0.7362696874512191 0.5588492585965881 0  0.9263866788528928 -0.3871109456098767 0  0.2082638527518723 0.8281140484900579 0  0.5248060121945816 0.9005543628031059 0  -0.7582884755902169 0.1252879380520061 0  -0.6255078733070081 0.3946647159042865 0  0.6255078733070081 -0.3946647159042865 0  0.7582884755902169 -0.1292857687369554 0  0.5948721296472662 -0.1584405786510595 0  -0.5670465018755917 0.1432356562464506 0  -0.89375 -0.9531384744046074 0  0.3155676838468908 -0.3477774976660757 0  0.4472270861068231 -0.4546456869337784 0  -0.3195958065476507 0.324767591485069 0  0.3954740292905822 -0.933289973479454 0  0.1671204360856271 0.04901773684410449 0  0.01698962288882282 -0.1612102517723862 0  -0.7091497308232801 0.6532493216449271 0  0.6432025982197558 -0.7150470361409429 0  -0.1606571198605911 -0.04886494473880954 0  -0.02160696251586107 0.1648877418207795 0  0.6871394560609285 0.4138336833108838 0  -0.688263055712501 -0.3754752514711991 0  0.3095520489356897 0.2676864323933507 0  0.03726958251948602 0.6750987768556955 0  -0.03935905619160907 -0.6727041011533731 0  -0.3115197203665421 -0.2666993209021057 0  -0.9152122291968994 -0.5437574105271168 0  -1.1 -0.4125 0  -0.1566243532314523 -0.781062063100448 0  1.1 0.6875 0  0.4165443495077914 -0.1519801246126446 0  0.9658103719060648 0.3356032137014749 0  -0.9658103719060648 -0.3356032137014749 0  -0.5839087679031144 -0.1390761928755171 0  0.5839087679031143 0.1390761928755171 0  0.1423333287472093 -0.5083067906639799 0  -0.4752614905681963 0.4429716171164753 0  0.9685082499001167 0.7562500000000001 0  -0.4158768607925063 0.1526485842106877 0  0.4103831384410911 0.5644359290502264 0  -0.4103831384410913 -0.5644359290502264 0  -0.6479626317679694 0.8188310822945971 0  0.1216267546545162 0.95071682257472 0  -0.6899009952488525 -0.7285570183341954 0  -0.08896806453050062 0.7487910726843793 0  0.2771005131791446 -0.6729245969393325 0  0.1667542613036276 0.3782071610916259 0  0.6725998457367501 0.7884740854031415 0  -0.1671900488895984 -0.3806470009132815 0  -0.1857656579805791 0.4358518290620153 0  0.1351568363093799 -0.8180086786661703 0  -0.002903455806733866 -0.9601818224436841 0  -0.7523129632173704 -0.9764504944004334 0  -0.278465405071061 0.6410955012021141 0  -0.4797587904321944 0.9723359272911971 0  -0.5483714619179123 0.6981268991685581 0  1.1 0.4125 0  1.1 -0.6875 0  -1.1 0.9625000000000001 0  -0.6875 -1.1 0  -0.9625000000000001 1.1 0  1.1 -0.9625000000000001 0  -0.1375 -1.1 0  -1.1 -0.6875 0  1.1 -0.1375 0  1.1 0.1375 0  -1.1 -0.1375 0  -1.1 0.6875 0  -0.4125 -1.1 0  0.6875 -1.1 0  0.4125 1.1 0  0.9625000000000001 -1.1 0  0.6875 1.1 0  0.1375 -1.1 0  -0.1375 1.1 0  -0.6875 1.1 0  1.1 0.9625000000000001 0  0.9625000000000001 1.1 0  -1.1 0.4125 0  -0.4125 1.1 0  -0.9627015630240402 0.5502321609230052 0  -0.9512668605249929 -0.8263303590017115 0  -0.369432194300773 0.7902075978306167 0  0.8019035622250388 0.1176585580384471 0  -0.8019035622250388 -0.1176585580384471 0  0.7089090043683032 -0.5095273259727546 0  -0.491695284711853 -0.8807217089375685 0  -0.04175080967453128 -0.2822362688456266 0  0.04174908160241213 0.2830342764916047 0  0.962458577651645 0.4710956889022327 0  0.7668162920233669 -0.6551607140881466 0  0.9860961585300724 0 0  -0.9860961585300724 0 0  0.2643523673495418 0.138507931964844 0  -0.2616757214937634 -0.1347360047837593 0  0.5218316321494634 -0.9711384651178567 0  -0.6708422557228739 0.2213680552752831 0  0.2683602138601083 -0.968316054012567 0  0.1217796522356484 -0.07732360123771384 0  -0.1226129403383433 0.0784903176630474 0  0.4117716295028089 -0.8072822677577132 0  -0.005522753878931265 0.9713118100955858 0  0.9743210980811516 -0.5099869793334564 0  0.8050069312190873 -0.4237352725370912 0  -0.8342769894939525 0.6718000400131653 0  -0.7409724806899598 -0.4895572963233
[...]
<CellData  Scalars="f_48"> 
<DataArray  type="Float64"  Name="f_48"  format="ascii">1.0000000000000000e+00   1.0000000000000000e+00   1.0000000000000000e+00   1.0000000000000000e+00   0.0000000000000000e+00   0.0000000000000000e+00   0.0000000000000000e+00   0.0000000000000000e+00   1.0000000000000000e+00   0.0000000000000000e+00   1.0000000000000000e+00   0.0000000000000000e+00   1.0000000000000000e+00   0.0000000000000000e+00   1.0000000000000000e+00   0.0000000000000000e+00   1.0000000000000000e+00   0.0000000000000000e+00   1.0000000000000000e+00   1.0000000000000000e+00   1.0000000000000000e+00   1.0000000000000000e+00   0.0000000000000000e+00   1.0000000000000000e+00   0.0000000000000000e+00   1.0000000000000000e+00   0.0000000000000000e+00   1.0000000000000000e+00   1.0000000000000000e+00   0.0000000000000000e+00   1.0000000000000000e+00   0.0000000000000000e+00   1.0000000000000000e+00   0.0000000000000000e+00   1.0000000000000000e+00   0.0000000000000000e+00   1.0000000000000000e+00   0.0000000000000000e+00   1.0000000000000000e+00   0.0000000000000000e+00   1.0000000000000000e+00   0.0000000000000000e+00   1.0000000000000000e+00   0.0000000000000000e+00   1.0000000000000000e+00   0.0000000000000000e+00   1.0000000000000000e+00   0.0000000000000000e+00   1.0000000000000000e+00   0.0000000000000000e+00   1.0000000000000000e+00   1.0000000000000000e+00   0.0000000000000000e+00   1.0000000000000000e+00   0.0000000000000000e+00   0.0000000000000000e+00   0.0000000000000000e+00   0.0000000000000000e+00   0.0000000000000000e+00   1.0000000000000000e+00   0.0000000000000000e+00   1.0000000000000000e+00   0.0000000000000000e+00   1.0000000000000000e+00   1.0000000000000000e+00   0.0000000000000000e+00   1.0000000000000000e+00   1.0000000000000000e+00   0.0000000000000000e+00   1.0000000000000000e+00   0.0000000000000000e+00   1.0000000000000000e+00   0.0000000000000000e+00   1.0000000000000000e+00   0.0000000000000000e+00   1.0000000000000000e+00   0.0000000000000000e+00   1.0000000000000000e+00   0.0000000000000000e+00   1.0000000000000000e+00   1.0000000000000000e+00   1.0000000000000000e+00   1.0000000000000000e+00   0.0000000000000000e+00   1.0000000000000000e+00   1.0000000000000000e+00   1.0000000000000000e+00   1.0000000000000000e+00   0.0000000000000000e+00   1.0000000000000000e+00   0.0000000000000000e+00   1.0000000000000000e+00   0.0000000000000000e+00   1.0000000000000000e+00   0.0000000000000000e+00   1.0000000000000000e+00   0.0000000000000000e+00   1.0000000000000000e+00   0.0000000000000000e+00   1.0000000000000000e+00   0.0000000000000000e+00   1.0000000000000000e+00   0.0000000000000000e+00   1.0000000000000000e+00   0.0000000000000000e+00   1.0000000000000000e+00   0.0000000000000000e+00   1.0000000000000000e+00   0.0000000000000000e+00   1.0000000000000000e+00   0.0000000000000000e+00   1.0000000000000000e+00   0.0000000000000000e+00   1.0000000000000000e+00   0.0000000000000000e+00   1.0000000000000000e+00   0.0000000000000000e+00   0.0000000000000000e+00   0.0000000000000000e+00   0.0000000000000000e+00   0.0000000000000000e+00   0.0000000000000000e+00   0.0000000000000000e+00   0.0000000000000000e+00   0.0000000000000000e+00   0.0000000000000000e+00   0.0000000000000000e+00   0.0000000000000000e+00   0.0000000000000000e+00   0.0000000000000000e+00   0.0000000000000000e+00   0.0000000000000000e+00   0.0000000000000000e+00   0.0000000000000000e+00   0.0000000000000000e+00   0.0000000000000000e+00   0.0000000000000000e+00   0.0000000000000000e+00   0.0000000000000000e+00   0.0000000000000000e+00   0.0000000000000000e+00   0.0000000000000000e+00   0.0000000000000000e+00   0.0000000000000000e+00   0.0000000000000000e+00   0.0000000000000000e+00   0.0000000000000000e+00   0.0000000000000000e+00   0.0000000000000000e+00   0.0000000000000000e+00   0.0000000000000000e+00   0.0000000000000000e+00   0.0000000000000000e+00   0.0000000000000000e+00   0.0000000000000000e+00   0.0000000000000000e+00   0.0000000000000000e+00   0.0000000000000000e+00   0.0000000000000000e+00   0.0000000000000000e+00   0.0000000000000000e+00   0.0000000000000000e+00   0.0000000000000000e+00   0.0000000000000000e+00   0.0000000000000000e+00   0.0000000000000000e+00   0.0000000000000000e+00   0.0000000000000000e+00   0.0000000000000000e+00   0.0000000000000000e+00   0.0000000000000000e+00   0.0000000000000000e+00   0.0000000000000000e+00   0.0000000000000000e+00   0.0000000000000000e+00   0.0000000000000000e+00   0.0000000000000000e+00   0.0000000000000000e+00   0.0000000000000000e+00   0.0000000000000000e+00   0.0000000000000000e+00   0.0000000000000000e+00   0.0000000000000000e+00   0.0000000000000000e+00   0.0000000000000000e+00   0.0000000000000000e+00   0.0000000000000000e+00   0.0000000000000000e+00   1.0000000000000000e+00   1.0000000000000000e+00   0.0000000000000000e+00   0.0000000000000000e+00   0.0000000000000000e+00   0.0000000000000000e+00   0.0000000000000000e+00   0.0000000000000000e+00   0.0000000000000000e+00   0.0000000000000000e+00   0.0000000000000000e+00   0.0000000000000000e+00   0.0000000000000000e+00   0.0000000000000000e+00   0.0000000000000000e+00   0.0000000000000000e+00   0.0000000000000000e+00   0.0000000000000000e+00   0.0000000000000000e+00   0.0000000000000000e+00   0.0000000000000000e+00   0.0000000000000000e+00   0.0000000000000000e+00   1.0000000000000000e+00   1.0000000000000000e+00   0.0000000000000000e+00   1.0000000000000000e+00   0.0000000000000000e+00   0.0000000000000000e+00   0.0000000000000000e+00   0.0000000000000000e+00   0.0000000000000000e+00   0.0000000000000000e+00   0.0000000000000000e+00   1.0000000000000000e+00   1.0000000000000000e+00   1.0000000000000000e+00   1.0000000000000000e+00   0.0000000000000000e+00   0.0000000000000000e+00   0.0000000000000000e+00   0.0000000000000000e+00   0.0000000000000000e+00   0.0000000000000000e+00   0.0000000000000000e+00   0.0000000000000000e+00   0.0000000000000000e+00   0.0000000000000000e+00   0.0000000000000000e+00   0.0000000000000000e+00   0.0000000000000000e+00   0.0000000000000000e+00   0.0000000000000000e+00   0.0000000000000000e+00   0.0000000000000000e+00   0.0000000000000000e+00   0.0000000000000000e+00   0.0000000000000000e+00   0.0000000000000000e+00   0.0000000000000000e+00   0.0000000000000000e+00   0.0000000000000000e+00   0.0000000000000000e+00   0.0000000000000000e+00   0.0000000000000000e+00   0.0000000000000000e+00   0.0000000000000000e+00   0.0000000000000000e+00   0.0000000000000000e+00   0.0000000000000000e+00   0.0000000000000000e+00   0.0000000000000000e+00   0.0000000000000000e+00   0.0000000000000000e+00   0.0000000000000000e+00   0.0000000000000000e+00   0.0000000000000000e+00   0.0000000000000000e+00   0.0000000000000000e+00   0.0000000000000000e+00   0.0000000000000000e+00   1.0000000000000000e+00   0.0000000000000000e+00   0.0000000000000000e+00   0.0000000000000000e+00   0.0000000000000000e+00   0.0000000000000000e+00   0.0000000000000000e+00   0.0000000000000000e+00   0.0000000000000000e+00   0.0000000000000000e+00   0.0000000000000000e+00   0.0000000000000000e+00   0.0000000000000000e+00   0.0000000000000000e+00   0.0000000000000000e+00   0.0000000000000000e+00   0.0000000000000000e+00   0.0000000000000000e+00   0.0000000000000000e+00   0.0000000000000000e+00   0.0000000000000000e+00   0.0000000000000000e+00   0.0000000000000000e+00   0.0000000000000000e+00   0.0000000000000000e+00   0.0000000000000000e+00   0.0000000000000000e+00   0.0000000000000000e+00   0.0000000000000000e+00   0.0000000000000000e+00   1.0000000000000000e+00   1.0000000000000000e+00   1.0000000000000000e+00   1.0000000000000000e+00   0.0000000000000000e+00   0.0000000000000000e+00   0.0000000000000000e+00   0.0000000000000000e+00   1.0000000000000000e+00   1.0000000000000000e+00   1.0000000000000000e+00   1.0000000000000000e+00   0.0000000000000000e+00   0.0000000000000000e+00   0.0000000000000000e+00   0.0000000000000000e+00   1.0000000000000000e+00   1.0000000000000000e+00   0.0000000000000000e+00   0.0000000000000000e+00   0.0000000000000000e+00   0.0000000000000000e+00   1.0000000000000000e+00   1.0000000000000000e+00   0.0000000000000000e+00   0.0000000000000000e+00   0.0000000000000000e+00   0.0000000000000000e+00   0.0000000000000000e+00   0.0000000000000000e+00   0.0000000000000000e+00   0.0000000000000000e+00   0.0000000000000000e+00   0.0000000000000000e+00   0.0000000000000000e+00   0.0000000000000000e+00   0.0000000000000000e+00   0.0000000000000000e+00   0.0000000000000000e+00   0.0000000000000000e+00   0.0000000000000000e+00   0.0000000000000000e+00   0.0000000000000000e+00   0.0000000000000000e+00   0.0000000000000000e+00   0.0000000000000000e+00   0.0000000000000000e+00   0.0000000000000000e+00   1.0000000000000000e+00   1.0000000000000000e+00   1.0000000000000000e+00   1.0000000000000000e+00   0.0000000000000000e+00   0.0000000000000000e+00   0.0000000000000000e+00   0.0000000000000000e+00   0.0000000000000000e+00   0.0000000000000000e+00   0.0000000000000000e+00   0.0000000000000000e+00   0.0000000000000000e+00   0.0000000000000000e+00   1.0000000000000000e+00   1.0000000000000000e+00   0.0000000000000000e+00   0.0000000000000000e+00   1.0000000000000000e+00   1.0000000000000000e+00   0.0000000000000000e+00   0.0000000000000000e+00   0.0000000000000000e+00   0.0000000000000000e+00   0.0000000000000000e+00   0.0000000000000000e+00   0.0000000000000000e+00   0.0000000000000000e+00   0.0000000000000000e+00   0.0000000000000000e+00   0.0000000000000000e+00   0.0000000000000000e+00   0.0000000000000000e+00   0.0000000000000000e+00   0.0000000000000000e+00   0.0000000000000000e+00   0.0000000000000000e+00   0.0000000000000000e+00   0.0000000000000000e+00   0.0000000000000000e+00   0.0000000000000000e+00   0.0000000000000000e+00   0.0000000000000000e+00   0.0000000000000000e+00   0.0000000000000000e+00   0.0000000000000000e+00   0.0000000000000000e+00   0.0000000000000000e+00   0.0000000000000000e+00   0.0000000000000000e+00   0.0000000000000000e+00   0.0000000000000000e+00   0.0000000000000000e+00   0.0000000000000000e+00   0.0000000000000000e+00   0.0000000000000000e+00   0.0000000000000000e+00   0.0000000000000000e+00   0.0000000000000000e+00   0.0000000000000000e+00   0.0000000000000000e+00   0.0000000000000000e+00   0.0000000000000000e+00   0.0000000000000000e+00   0.0000000000000000e+00   0.0000000000000000e+00   0.0000000000000000e+00   0.0000000000000000e+00   0.0000000000000000e+00   0.0000000000000000e+00   0.0000000000000000e+00   0.0000000000000000e+00   0.0000000000000000e+00   0.0000000000000000e+00   0.0000000000000000e+00   0.0000000000000000e+00   0.0000000000000000e+00   0.0000000000000000e+00   0.0000000000000000e+00   0.0000000000000000e+00   0.0000000000000000e+00   0.0000000000000000e+00   0.0000000000000000e+00   0.0000000000000000e+00   1.0000000000000000e+00   1.0000000000000000e+00   1.0000000000000000e+00   1.0000000000000000e+00   0.0000000000000000e+00   0.0000000000000000e+00   0.0000000000000000e+00   0.0000000000000000e+00   0.0000000000000000e+00   0.0000000000000000e+00   0.0000000000000000e+00   0.0000000000000000e+00   1.0000000000000000e+00   1.0000000000000000e+00   1.0000000000000000e+00   1.0000000000000000e+00   0.0000000000000000e+00   0.0000000000000000e+00   0.0000000000000000e+00   0.0000000000000000e+00   0.0000000000000000e+00   1.0000000000000000e+00   1.0000000000000000e+00   1.0000000000000000e+00   1.0000000000000000e+00   0.0000000000000000e+00   0.0000000000000000e+00   0.0000000000000000e+00   0.0000000000000000e+00   0.0000000000000000e+00   0.0000000000000000e+00   0.0000000000000000e+00   0.0000000000000000e+00   0.0000000000000000e+00   0.0000000000000000e+00   0.0000000000000000e+00   0.0000000000000000e+00   0.0000000000000000e+00   0.0000000000000000e+00   0.0000000000000000e+00   0.0000000000000000e+00   0.0000000000000000e+00   0.0000000000000000e+00   0.0000000000000000e+00   0.0000000000000000e+00   0.0000000000000000e+00   0.0000000000000000e+00   0.0000000000000000e+00   0.0000000000000000e+00   0.0000000000000000e+00   0.0000000000000000e+00   0.0000000000000000e+00   0.0000000000000000e+00   0.0000000000000000e+00   0.0000000000000000e+00   0.0000000000000000e+00   0.0000000000000000e+00   0.0000000000000000e+00   1.0000000000000000e+00   1.0000000000000000e+00   1.0000000000000000e+00   1.0000000000000000e+00   0.0000000000000000e+00   0.0000000000000000e+00   0.0000000000000000e+00   0.0000000000000000e+00   0.0000000000000000e+00   0.0000000000000000e+00   0.0000000000000000e+00   0.0000000000000000e+00   0.0000000000000000e+00   0.0000000000000000e+00   1.0000000000000000e+00   0.0000000000000000e+00   0.0000000000000000e+00   0.0000000000000000e+00   0.0000000000000000e+00   0.0000000000000000e+00   0.0000000000000000e+00   0.0000000000000000e+00   0.0000000000000000e+00   0.0000000000000000e+00   0.0000000000000000e+00   0.0000000000000000e+00   0.0000000000000000e+00   0.0000000000000000e+00   0.0000000000000000e+00   0.0000000000000000e+00   0.0000000000000000e+00   0.0000000000000000e+00   0.0000000000000000e+00   0.0000000000000000e+00   0.0000000000000000e+00   1.0000000000000000e+00   1.0000000000000000e+00   0.0000000000000000e+00   0.0000000000000000e+00   1.0000000000000000e+00   1.0000000000000000e+00   1.0000000000000000e+00   1.0000000000000000e+00   0.0000000000000000e+00   1.0000000000000000e+00   0.0000000000000000e+00   0.0000000000000000e+00   0.0000000000000000e+00   0.0000000000000000e+00   1.0000000000000000e+00   1.0000000000000000e+00   0.0000000000000000e+00   0.0000000000000000e+00   0.0000000000000000e+00   0.0000000000000000e+00   0.0000000000000000e+00   0.0000000000000000e+00   0.0000000000000000e+00   0.0000000000000000e+00   0.0000000000000000e+00   0.0000000000000000e+00   0.0000000000000000e+00   0.0000000000000000e+00   0.0000000000000000e+00   0.0000000000000000e+00   0.0000000000000000e+00   0.0000000000000000e+00   1.0000000000000000e+00   1.0000000000000000e+00   0.0000000000000000e+00   0.0000000000000000e+00   1.0000000000000000e+00   1.0000000000000000e+00   0.0000000000000000e+00   0.0000000000000000e+00   0.0000000000000000e+00   0.0000000000000000e+00   1.0000000000000000e+00   0.0000000000000000e+00   0.0000000000000000e+00   0.0000000000000000e+00   0.0000000000000000e+00   0.0000000000000000e+00   0.0000000000000000e+00   0.0000000000000000e+00   0.0000000000000000e+00   0.0000000000000000e+00   0.0000000000000000e+00   0.0000000000000000e+00   0.0000000000000000e+00   0.0000000000000000e+00   0.0000000000000000e+00   0.0000000000000000e+00   0.0000000000000000e+00   0.0000000000000000e+00   0.0000000000000000e+00   0.0000000000000000e+00   0.0000000000000000e+00   0.0000000000000000e+00   0.0000000000000000e+00   0.0000000000000000e+00   0.0000000000000000e+00   0.0000000000000000e+00   0.0000000000000000e+00   0.0000000000000000e+00   1.0000000000000000e+00   1.0000000000000000e+00   1.0000000000000000e+00   1.0000000000000000e+00   0.0000000000000000e+00   0.0000000000000000e+00   0.0000000000000000e+00   1.0000000000000000e+00   0.0000000000000000e+00   0.0000000000000000e+00   0.0000000000000000e+00   0.0000000000000000e+00   1.0000000000000000e+00   0.0000000000000000e+00   0.0000000000000000e+00   0.0000000000000000e+00   0.0000000000000000e+00   0.0000000000000000e+00   0.0000000000000000e+00   0.0000000000000000e+00   0.0000000000000000e+00   0.0000000000000000e+00   0.0000000000000000e+00   0.0000000000000000e+00   0.0000000000000000e+00   0.0000000000000000e+00   0.0000000000000000e+00   0.0000000000000000e+00   0.0000000000000000e+00   0.0000000000000000e+00   0.0000000000000000e+00   0.0000000000000000e+00   0.0000000000000000e+00   0.0000000000000000e+00   0.0000000000000000e+00   0.0000000000000000e+00   0.0000000000000000e+00   0.0000000000000000e+00   0.0000000000000000e+00   0.0000000000000000e+00   0.0000000000000000e+00   0.0000000000000000e+00   0.0000000000000000e+00   0.0000000000000000e+00   0.0000000000000000e+00   0.0000000000000000e+00   1.0000000000000000e+00   0.0000000000000000e+00   0.0000000000000000e+00   0.0000000000000000e+00   0.0000000000000000e+00   0.0000000000000000e+00   0.0000000000000000e+00   0.0000000000000000e+00   0.0000000000000000e+00   0.0000000000000000e+00   0.0000000000000000e+00   0.0000000000000000e+00   0.0000000000000000e+00   0.0000000000000000e+00   0.0000000000000000e+00   0.0000000000000000e+00   0.0000000000000000e+00   0.0000000000000000e+00   0.0000000000000000e+00   0.0000000000000000e+00   0.0000000000000000e+00   0.0000000000000000e+00   0.0000000000000000e+00   0.0000000000000000e+00   0.0000000000000000e+00   0.0000000000000000e+00   0.0000000000000000e+00   0.0000000000000000e+00   0.0000000000000000e+00   0.0000000000000000e+00   0.0000000000000000e+00   0.0000000000000000e+00   0.0000000000000000e+00   0.0000000000000000e+00   0.0000000000000000e+00   0.0000000000000000e+00   0.0000000000000000e+00   0.0000000000000000e+00   0.0000000000000000e+00   0.0000000000000000e+00   0.0000000000000000e+00   0.0000000000000000e+00   0.0000000000000000e+00   0.0000000000000000e+00   0.0000000000000000e+00   0.0000000000000000e+00   0.0000000000000000e+00   0.0000000000000000e+00   0.0000000000000000e+00   0.0000000000000000e+00   0.0000000000000000e+00   0.0000000000000000e+00   0.0000000000000000e+00   0.0000000000000000e+00   0.0000000000000000e+00   0.0000000000000000e+00   0.0000000000000000e+00   0.0000000000000000e+00   0.0000000000000000e+00   0.0000000000000000e+00   0.0000000000000000e+00   0.0000000000000000e+00   0.0000000000000000e+00   0.0000000000000000e+00   0.0000000000000000e+00   0.0000000000000000e+00   1.0000000000000000e+00   1.0000000000000000e+00   0.0000000000000000e+00   0.0000000000000000e+00   0.0000000000000000e+00   0.0000000000000000e+00   0.0000000000000000e+00   0.0000000000000000e+00   0.0000000000000000e+00   0.0000000000000000e+00   0.0000000000000000e+00   0.0000000000000000e+00   0.0000000000000000e+00   0.0000000000000000e+00   0.0000000000000000e+00   0.0000000000000000e+00   0.0000000000000000e+00   0.0000000000000000e+00   0.0000000000000000e+00   0.0000000000000000e+00   0.0000000000000000e+00   0.0000000000000000e+00   0.0000000000000000e+00   0.0000000000000000e+00   0.0000000000000000e+00   0.0000000000000000e+00   0.0000000000000000e+00   0.0000000000000000e+00   0.0000000000000000e+00   0.0000000000000000e+00   0.0000000000000000e+00   0.0000000000000000e+00   0.0000000000000000e+00   0.0000000000000000e+00   0.0000000000000000e+00   0.0000000000000000e+00   0.0000000000000000e+00   0.0000000000000000e+00   0.0000000000000000e+00   0.0000000000000000e+00   0.0000000000000000e+00   0.0000000000000000e+00   0.0000000000000000e+00   0.0000000000000000e+00   0.0000000000000000e+00   0.0000000000000000e+00   1.0000000000000000e+00   1.0000000000000000e+00   0.0000000000000000e+00   0.0000000000000000e+00   0.0000000000000000e+00   0.0000000000000000e+00   0.0000000000000000e+00   0.0000000000000000e+00   0.0000000000000000e+00   0.0000000000000000e+00   0.0000000000000000e+00   0.0000000000000000e+00   0.0000000000000000e+00   0.0000000000000000e+00   0.0000000000000000e+00   0.0000000000000000e+00   0.0000000000000000e+00   0.0000000000000000e+00   0.0000000000000000e+00   0.0000000000000000e+00   1.0000000000000000e+00   0.0000000000000000e+00   1.0000000000000000e+00   1.0000000000000000e+00   1.0000000000000000e+00   1.0000000000000000e+00   1.0000000000000000e+00   1.0000000000000000e+00   0.0000000000000000e+00   0.0000000000000000e+00   0.0000000000000000e+00   0.0000000000000000e+00   0.0000000000000000e+00   0.0000000000000000e+00   0.0000000000000000e+00   0.0000000000000000e+00   0.0000000000000000e+00   0.0000000000000000e+00   0.0000000000000000e+00   0.0000000000000000e+00   0.0000000000000000e+00   1.0000000000000000e+00   1.0000000000000000e+00   0.0000000000000000e+00   0.00000000000000