<?xml version="1.0"?>
<VTKFile type="UnstructuredGrid"  version="0.1"  >
<UnstructuredGrid>
<Piece  NumberOfPoints="2404" NumberOfCells="4593">
<Points>
<DataArray  type="Float64"  NumberOfComponents="3"  format="ascii">1.5 0.125 0  1.5 -0.125 0  3 -0.125 0  3 0.125 0  1.5 0.875 0  3 0.875 0  0 0 0  0 1 0  -1 1 0  -1 0 0  0.75 0.0625 0  0.75 0.9375 0  0.75 -0.0625 0  2.25 0.125 0  2.25 0.875 0  2.25 -0.125 0  0 0.5 0  -0.5 1 0  -1 0.5 0  -0.5 0 0  1.091145833333333 0.5 0  1.875 0.125 0  1.875 0.875 0  1.5 0.5 0  1.875 -0.125 0  3 0.5 0  2.625 0.875 0  2.625 0.125 0  2.625 -0.125 0  -0.5 0.5 0  0.5026041666666666 0.5 0  2.0625 0.5 0  1.125 0.09375 0  1.125 -0.09375 0  1.125 0.90625 0  0.375 -0.03125 0  0.375 0.03125 0  0.375 0.96875 0  2.625 0.5 0  -0.25 0 0  0 0.25 0  -1 0.25 0  -0.75 0 0  -0.75 1 0  -1 0.75 0  0 0.75 0  -0.25 1 0  0.7968749999999999 0.3777049231150794 0  1.78125 0.40625 0  2.34375 0.59375 0  0.8504217815793809 0.6640488172831285 0  0.2848618116593421 0.3075309628445865 0  0.2513020833333333 0.625 0  -0.625 0.75 0  -0.2916666666666666 0.2916666666666666 0  -0.625 0.25 0  -0.34375 0.734375 0  1.295572916666667 0.6875 0  1.295572916666667 0.3125000000000001 0  1.7109375 0.6640625 0  2.8125 0.125 0  3 0.3125 0  3 0.6875 0  2.8125 0.875 0  2.4375 0.125 0  0.6068337359416687 0.7297588869179056 0  0.5467189473788094 0.2362476314542871 0  -0.75 0.46875 0  2.263392857142857 0.3660714285714286 0  2.0625 0.125 0  1.6875 -0.125 0  1.6875 0.125 0  -0.2734375 0.5182291666666666 0  0.1875 0.984375 0  1.3125 0.109375 0  1.3125 -0.109375 0  1.0065310004202 0.2884131736461277 0  2.8125 0.40625 0  1.925951086956522 0.6661005434782609 0  2.15625 0.6875 0  2.53125 0.3125 0  2.71875 0.6875 0  1.5 0.3125 0  0.1875 0.015625 0  0.1875 -0.015625 0  1.091796875 0.7044813368055556 0  0.9375 -0.078125 0  0.9375 0.078125 0  1.96875 0.3125 0  2.4375 0.875 0  0.5625 0.046875 0  0.5625 -0.046875 0  2.524553571428572 0.6674107142857143 0  0.689951750352106 0.5535314077607478 0  1.3125 0.890625 0  0.9375 0.921875 0  0.5625 0.953125 0  -0.8125 0.6649305555555556 0  2.0625 -0.125 0  2.8125 -0.125 0  1.5 0.6875 0  1.6875 0.875 0  -0.8125 0.1875 0  2.4375 -0.125 0  2.0625 0.875 0  1.279346636146497 0.5 0  0.4034304476460117 0.7643880925453115 0  0.1805064901470225 0.797782307882382 0  -0.1289930555555556 0.625 0  -0.4473039215686274 0.1825980392156863 0  -0.1309523809523809 0.375 0  -0.1614583333333333 0.1614583333333333 0  -0.125 1 0  0 0.875 0  -0.178679435483871 0.821320564516129 0  -0.8442089083510262 0.8442089083510262 0  0 0.375 0  0.1782428420576632 0.4567685679639341 0  2.698660714285714 0.2790178571428572 0  2.457589285714286 0.4665178571428572 0  2.845982142857143 0.5736607142857143 0  -1 0.375 0  0.8543575571742378 0.221892492858328 0  0.3426692833429559 0.4615344177924612 0  -0.4457323438634713 0.3459343228031954 0  0.9453683849158103 0.4355848692840438 0  0.6274935816640724 0.3853233284452707 0  2.15625 0.2511160714285715 0  2.34375 0 0  2.71875 0 0  1.96875 0 0  1.78125 0 0  1.5 0 0  2.15625 0 0  2.53125 0 0  3 0 0  -0.4793074324324325 0.8334037162162162 0  0.6996178353103061 0.2093450142909405 0  -0.6708984375 0.6019965277777778 0  0.270697682051558 0.1500653153813044 0  0.4526261014423331 0.3560752857217036 0  0 0.125 0  1.90344346473934 0.5084196057819806 0  2.34375 0.2406994047619048 0  2.392059948979592 0.7338966836734694 0  1.828125 0.265625 0  1.625 0.40625 0  2.203125 0.546875 0  0.1356178503219184 0.3125 0  0.9847922665899063 0.6025803205786656 0  0.8340426010519961 0.813198712623953 0  1.155610041892928 0.2457595866291252 0  0.4153560583311574 0.1718653467915593 0  -0.753125 0.321875 0  1.636160714285714 0.2611607142857143 0  -0.3062406386165577 0.1468843613834422 0  -0.375 1 0  0.4877949340784243 0.6452393637352224 0  -0.3939144736842105 0.598547149122807 0  -0.3108739190968454 0.8721282949753572 0  0.8301828196934317 0.5216765196789415 0  2.859375 0.265625 0  2.859375 0.7166491596638656 0  0 0.625 0  0.959840314405302 0.7515391255387412 0  -0.5817373642600167 0.3846186821300083 0  -0.7048572593171034 0.8663213703414483 0  -0.5727211097204838 0.119889445139758 0  -0.532258721798014 0.6401206391009929 0  1.185897276406582 0.6025392352817588 0  1.397786458333333 0.40625 0  1.210286458333333 0.796875 0  1.397786458333333 0.78125 0  1.397786458333333 0.59375 0  1.185246234739915 0.3974044234664352 0  1.397786458333333 0.21875 0  1.227213541666667 0 0  0.1350218353881122 0.1410642178081924 0  1.703125 0.5234375 0  1.78125 0.7786458333333334 0  -0.8659517426273459 0.3977463136729223 0  2.090915578187797 0.3686047109061016 0  -0.875 0 0  -1 0.125 0  1.61484375 0.76015625 0  1.597033167177914 0.5998610046012269 0  0.28125 0.9765625 0  1.03125 0.0859375 0  1.03125 -0.0859375 0  2.409766594730309 0.3490226881629429 0  0.7232448310659281 0.6769492721674293 0  0.65625 0.9453125 0  0.7041188491344678 0.8159167405302798 0  -0.8681525617639529 0.5391545058883769 0  0.1256510416666667 0.5795877731157937 0  -0.1483856872302484 0.5001443079909847 0  -0.625 0 0  -0.375 0 0  2.864583333333333 0 0  1.651041666666667 0 0  -0.875 1 0  -0.125 0 0  -1 0.875 0  -0.625 1 0  -1 0.625 0  2.034857150243588 0.7439910751217943 0  -0.6946518160894539 0.1464554482683619 0  1.808695083209612 0.5881020092661327 0  0.46875 0.9609375 0  0.5189785494751636 0.8284041172352008 0  2.040467692032899 0.6210652895693242 0  0.3018679381205351 0.8471693658180547 0  -0.3368172572848583 0.4093140800880537 0  2.33294930875576 0.4695420506912443 0  -0.2231675762042645 0.7056133541213269 0  2.266509176786575 0.7495579116067124 0  0.3682706744277225 0.6500509156343653 0  -0.6341667084936641 0.4900882883376927 0  0.84375 0.0703125 0  0.84375 -0.0703125 0  2.691964285714286 0.3995535714285715 0  2.725446428571428 0.5669642857142858 0  2.53125 0.875 0  2.613912470725996 0.7522687353629978 0  -0.7604601461971343 0.7665781777900219 0  -0.5907347052814409 0.859096497234703 0  0.9007115019112484 0.3307310217824354 0  1.051187883424762 0.3932670211477362 0  0.2763187314205908 0.7361452882075473 0  1.03125 0.9140625 0  0.1576706977426279 0.68753060058375 0  2.627391581632653 0.6219706632653064 0  0.5970613191094051 0.6174345868565836 0  0.9760488487311414 0.1819450652263033 0  1.374348958333333 0 0  1.05402530203385 0.807105747245588 0  0.09375 0.9921875 0  0.65625 0.0546875 0  0.65625 -0.0546875 0  -0.8579141681780026 0.2878719580321406 0  -0.1800595238095238 0.2730654761904762 0  1.928641480329291 0.7774200124345035 0  0.1101727305133633 0.8829555655893093 0  0.6105216329734964 0.1509194761281952 0  3 0.78125 0  2.526945153061225 0.5550063775510203 0  0.1974859220353332 0.2265659818441911 0  -0.4559331695681008 0.723105436888684 0  2.178193809607269 0.4381181746309945 0  2.252458888585144 0.6455427771702879 0  2.773463145023634 0.7773309274881828 0  1.875 0.359375 0  2.046990181748856 0.2344325908744281 0  2.554315476190476 0.418154761904762 0  2.601934523809524 0.2306547619047619 0  2.15625 0.875 0  1.921875 0.21875 0  2.894345238095238 0.4769345238095238 0  2.453798294624598 0.2340383526877008 0  2.90625 0.359375 0  1.97876192947868 0.4246815352606602 0  2.90625 0.875 0  -0.2358128762540495 0.3805897987620613 0  1.259863830472009 0.207256447678223 0  2.494254594672501 0.7722907504022696 0  0.4139724563597568 0.8700132263170816 0  -0.7695772529441884 0.5707379647297427 0  -0.9153083204732511 0.6875 0  0.7437633354626418 0.465830982586395 0  1.703125 0.3392857142857142 0  -0.5337427384224719 0.2949335326481405 0  0.46875 -0.0390625 0  0.46875 0.0390625 0  1.085611979166667 0 0  -0.1098425368958015 0.7342945621870717 0  -0.3021057293002611 0.6418173795459495 0  0.4247233088014774 0.565433620000294 0  1.085345091032299 0.6041238386550492 0  2.34375 0.875 0  3 0.21875 0  2.90625 0.125 0  1.733152636054422 0.2199723639455783 0  -0.3961952022692456 0.4946284914468091 0  -0.7787948732778861 0.09456837557403797 0  -0.9166666666666666 0.1875 0  -0.4068704224847951 0.9040023053789293 0  -0.393607115769432 0.09824630723118558 0  0.5109643673470614 0.1429949812809554 0  0.07920525203205457 0.4375 0  1.59375 -0.125 0  1.59375 0.125 0  1.189994543840031 0.700723333554494 0  1.598603037484471 0.501262383312628 0  2.53125 0.125 0  0.09375 0.0078125 0  0.09375 -0.0078125 0  2.429219148596939 0.6426877391581631 0  0.607194430046064 0.4885605706638498 0  0.7092402106675502 0.3160578455821263 0  0.28125 0.0234375 0  0.28125 -0.0234375 0  1.5 0.21875 0  1.805513306486268 0.6848921660955478 0  -0.1875 0.9213734559124619 0  -0.0985447220284108 0.8788004138970833 0  -0.9092261904761905 0.09077380952380952 0  2.916647086466166 0.6391633956214064 0  2.71875 0.125 0  2.774312258687259 0.2158542471042471 0  1.076968675156256 0.1825087796977596 0  0.7898886149672766 0.1502428703926804 0  -0.361374766296655 0.2255589031291991 0  0.7735975522362275 0.5971666856149769 0  0.3855352576153196 0.2737740792649258 0  -0.2670314939447324 0.7888651642865234 0  1.302492818016086 0.5924490381321216 0  1.279346636146497 0.4055478875212821 0  1.185246234739915 0.4918565359451532 0  1.303410456730769 0.7815504807692308 0  1.40625 0.1171875 0  1.40625 -0.1171875 0  1.21875 0.1015625 0  1.21875 -0.1015625 0  1.40625 0.8828125 0  1.21875 0.8984375 0  0.84375 0.9296875 0  -0.6822915278976419 0.3938386495297371 0  2.24866691468254 0.2219122023809524 0  2.71875 0.875 0  1.96875 0.875 0  1.78125 0.125 0  1.59375 0.875 0  1.78125 0.875 0  1.405899598593418 0.3125 0  1.375670041392985 0.5 0  1.389673318073249 0.6875 0  1.5 0.59375 0  1.5 0.78125 0  1.5 0.40625 0  2.34375 0.125 0  2.625 0.02734375 0  2.4375 -0.02734375 0  2.15625 0.125 0  2.25 0.02734375 0  2.0625 -0.02734375 0  1.875 0.02734375 0  1.78125 -0.125 0  1.96875 -0.125 0  2.90625 -0.125 0  2.71875 -0.125 0  2.53125 -0.125 0  2.34375 -0.125 0  2.126036569102786 0.78125 0  2.15625 -0.125 0  1.96875 0.125 0  3 0.40625 0  3 0.59375 0  -0.7202055696716896 0.6818242520928651 0  0.2586392323276671 0.5218339028031764 0  0.205760877779491 0.8902631760305619 0  0.0
[...]
<PointData  Vectors="f_60"> 
<DataArray  type="Float64"  Name="f_60"  NumberOfComponents="3" format="ascii">0.0000000000000000e+00 0.0000000000000000e+00 0.0000000000000000e+00  0.0000000000000000e+00 0.0000000000000000e+00 0.0000000000000000e+00  0.0000000000000000e+00 0.0000000000000000e+00 0.0000000000000000e+00  0.0000000000000000e+00 0.0000000000000000e+00 0.0000000000000000e+00  0.0000000000000000e+00 0.0000000000000000e+00 0.0000000000000000e+00  0.0000000000000000e+00 0.0000000000000000e+00 0.0000000000000000e+00  0.0000000000000000e+00 0.0000000000000000e+00 0.0000000000000000e+00  0.0000000000000000e+00 0.0000000000000000e+00 0.0000000000000000e+00  0.0000000000000000e+00 0.0000000000000000e+00 0.0000000000000000e+00  0.0000000000000000e+00 0.0000000000000000e+00 0.0000000000000000e+00  0.0000000000000000e+00 0.0000000000000000e+00 0.0000000000000000e+00  0.0000000000000000e+00 0.0000000000000000e+00 0.0000000000000000e+00  0.0000000000000000e+00 0.0000000000000000e+00 0.0000000000000000e+00  0.0000000000000000e+00 0.0000000000000000e+00 0.0000000000000000e+00  0.0000000000000000e+00 0.0000000000000000e+00 0.0000000000000000e+00  0.0000000000000000e+00 0.0000000000000000e+00 0.0000000000000000e+00  0.0000000000000000e+00 0.0000000000000000e+00 0.0000000000000000e+00  0.0000000000000000e+00 0.0000000000000000e+00 0.0000000000000000e+00  0.0000000000000000e+00 0.0000000000000000e+00 0.0000000000000000e+00  0.0000000000000000e+00 0.0000000000000000e+00 0.0000000000000000e+00  0.0000000000000000e+00 0.0000000000000000e+00 0.0000000000000000e+00  0.0000000000000000e+00 0.0000000000000000e+00 0.0000000000000000e+00  0.0000000000000000e+00 0.0000000000000000e+00 0.0000000000000000e+00  0.0000000000000000e+00 0.0000000000000000e+00 0.0000000000000000e+00  0.0000000000000000e+00 0.0000000000000000e+00 0.0000000000000000e+00  0.0000000000000000e+00 0.0000000000000000e+00 0.0000000000000000e+00  0.0000000000000000e+00 0.0000000000000000e+00 0.0000000000000000e+00  0.0000000000000000e+00 0.0000000000000000e+00 0.0000000000000000e+00  0.0000000000000000e+00 0.0000000000000000e+00 0.0000000000000000e+00  0.0000000000000000e+00 0.0000000000000000e+00 0.0000000000000000e+00  0.0000000000000000e+00 0.0000000000000000e+00 0.0000000000000000e+00  0.0000000000000000e+00 0.0000000000000000e+00 0.0000000000000000e+00  0.0000000000000000e+00 0.0000000000000000e+00 0.0000000000000000e+00  0.0000000000000000e+00 0.0000000000000000e+00 0.0000000000000000e+00  0.0000000000000000e+00 0.0000000000000000e+00 0.0000000000000000e+00  0.0000000000000000e+00 0.0000000000000000e+00 0.0000000000000000e+00  0.0000000000000000e+00 0.0000000000000000e+00 0.0000000000000000e+00  0.0000000000000000e+00 0.0000000000000000e+00 0.0000000000000000e+00  0.0000000000000000e+00 0.0000000000000000e+00 0.0000000000000000e+00  0.0000000000000000e+00 0.0000000000000000e+00 0.0000000000000000e+00  0.0000000000000000e+00 0.0000000000000000e+00 0.0000000000000000e+00  0.0000000000000000e+00 0.0000000000000000e+00 0.0000000000000000e+00  0.0000000000000000e+00 0.0000000000000000e+00 0.0000000000000000e+00  0.0000000000000000e+00 0.0000000000000000e+00 0.0000000000000000e+00  0.0000000000000000e+00 0.0000000000000000e+00 0.0000000000000000e+00  0.0000000000000000e+00 0.0000000000000000e+00 0.0000000000000000e+00  0.0000000000000000e+00 0.0000000000000000e+00 0.0000000000000000e+00  0.0000000000000000e+00 0.0000000000000000e+00 0.0000000000000000e+00  0.0000000000000000e+00 0.0000000000000000e+00 0.0000000000000000e+00  0.0000000000000000e+00 0.0000000000000000e+00 0.0000000000000000e+00  0.0000000000000000e+00 0.0000000000000000e+00 0.0000000000000000e+00  0.0000000000000000e+00 0.0000000000000000e+00 0.0000000000000000e+00  0.0000000000000000e+00 0.0000000000000000e+00 0.0000000000000000e+00  0.0000000000000000e+00 0.0000000000000000e+00 0.0000000000000000e+00  0.0000000000000000e+00 0.0000000000000000e+00 0.0000000000000000e+00  0.0000000000000000e+00 0.0000000000000000e+00 0.0000000000000000e+00  0.0000000000000000e+00 0.0000000000000000e+00 0.0000000000000000e+00  0.0000000000000000e+00 0.0000000000000000e+00 0.0000000000000000e+00  0.0000000000000000e+00 0.0000000000000000e+00 0.0000000000000000e+00  0.0000000000000000e+00 0.0000000000000000e+00 0.0000000000000000e+00  0.0000000000000000e+00 0.0000000000000000e+00 0.0000000000000000e+00  0.0000000000000000e+00 0.0000000000000000e+00 0.0000000000000000e+00  0.0000000000000000e+00 0.0000000000000000e+00 0.0000000000000000e+00  0.0000000000000000e+00 0.0000000000000000e+00 0.0000000000000000e+00  0.0000000000000000e+00 0.0000000000000000e+00 0.0000000000000000e+00  0.0000000000000000e+00 0.0000000000000000e+00 0.0000000000000000e+00  0.0000000000000000e+00 0.0000000000000000e+00 0.0000000000000000e+00  0.0000000000000000e+00 0.0000000000000000e+00 0.0000000000000000e+00  0.0000000000000000e+00 0.0000000000000000e+00 0.0000000000000000e+00  0.0000000000000000e+00 0.0000000000000000e+00 0.0000000000000000e+00  0.0000000000000000e+00 0.0000000000000000e+00 0.0000000000000000e+00  0.0000000000000000e+00 0.0000000000000000e+00 0.0000000000000000e+00  0.0000000000000000e+00 0.0000000000000000e+00 0.0000000000000000e+00  0.0000000000000000e+00 0.0000000000000000e+00 0.0000000000000000e+00  0.0000000000000000e+00 0.0000000000000000e+00 0.0000000000000000e+00  0.0000000000000000e+00 0.0000000000000000e+00 0.0000000000000000e+00  0.0000000000000000e+00 0.0000000000000000e+00 0.0000000000000000e+00  0.0000000000000000e+00 0.0000000000000000e+00 0.0000000000000000e+00  0.0000000000000000e+00 0.0000000000000000e+00 0.0000000000000000e+00  0.0000000000000000e+00 0.0000000000000000e+00 0.0000000000000000e+00  0.0000000000000000e+00 0.0000000000000000e+00 0.0000000000000000e+00  0.0000000000000000e+00 0.0000000000000000e+00 0.0000000000000000e+00  0.0000000000000000e+00 0.0000000000000000e+00 0.0000000000000000e+00  0.0000000000000000e+00 0.0000000000000000e+00 0.0000000000000000e+00  0.0000000000000000e+00 0.0000000000000000e+00 0.0000000000000000e+00  0.0000000000000000e+00 0.0000000000000000e+00 0.0000000000000000e+00  0.0000000000000000e+00 0.0000000000000000e+00 0.0000000000000000e+00  0.0000000000000000e+00 0.0000000000000000e+00 0.0000000000000000e+00  0.0000000000000000e+00 0.0000000000000000e+00 0.0000000000000000e+00  0.0000000000000000e+00 0.0000000000000000e+00 0.0000000000000000e+00  0.0000000000000000e+00 0.0000000000000000e+00 0.0000000000000000e+00  0.0000000000000000e+00 0.0000000000000000e+00 0.0000000000000000e+00  0.0000000000000000e+00 0.0000000000000000e+00 0.0000000000000000e+00  0.0000000000000000e+00 0.0000000000000000e+00 0.0000000000000000e+00  0.0000000000000000e+00 0.0000000000000000e+00 0.0000000000000000e+00  0.0000000000000000e+00 0.0000000000000000e+00 0.0000000000000000e+00  0.0000000000000000e+00 0.0000000000000000e+00 0.0000000000000000e+00  0.0000000000000000e+00 0.0000000000000000e+00 0.0000000000000000e+00  0.0000000000000000e+00 0.0000000000000000e+00 0.0000000000000000e+00  0.0000000000000000e+00 0.0000000000000000e+00 0.0000000000000000e+00  0.0000000000000000e+00 0.0000000000000000e+00 0.0000000000000000e+00  0.0000000000000000e+00 0.0000000000000000e+00 0.0000000000000000e+00  0.0000000000000000e+00 0.0000000000000000e+00 0.0000000000000000e+00  0.0000000000000000e+00 0.0000000000000000e+00 0.0000000000000000e+00  0.0000000000000000e+00 0.0000000000000000e+00 0.0000000000000000e+00  0.0000000000000000e+00 0.0000000000000000e+00 0.0000000000000000e+00  0.0000000000000000e+00 0.0000000000000000e+00 0.0000000000000000e+00  0.0000000000000000e+00 0.0000000000000000e+00 0.0000000000000000e+00  0.0000000000000000e+00 0.0000000000000000e+00 0.0000000000000000e+00  0.0000000000000000e+00 0.0000000000000000e+00 0.0000000000000000e+00  0.0000000000000000e+00 0.0000000000000000e+00 0.0000000000000000e+00  0.0000000000000000e+00 0.0000000000000000e+00 0.0000000000000000e+00  0.0000000000000000e+00 0.0000000000000000e+00 0.0000000000000000e+00  0.0000000000000000e+00 0.0000000000000000e+00 0.0000000000000000e+00  0.0000000000000000e+00 0.0000000000000000e+00 0.0000000000000000e+00  0.0000000000000000e+00 0.0000000000000000e+00 0.0000000000000000e+00  0.0000000000000000e+00 0.0000000000000000e+00 0.0000000000000000e+00  0.0000000000000000e+00 0.0000000000000000e+00 0.0000000000000000e+00  0.0000000000000000e+00 0.0000000000000000e+00 0.0000000000000000e+00  0.0000000000000000e+00 0.0000000000000000e+00 0.0000000000000000e+00  0.0000000000000000e+00 0.0000000000000000e+00 0.0000000000000000e+00  0.0000000000000000e+00 0.0000000000000000e+00 0.0000000000000000e+00  0.0000000000000000e+00 0.0000000000000000e+00 0.0000000000000000e+00  0.0000000000000000e+00 0.0000000000000000e+00 0.0000000000000000e+00  0.0000000000000000e+00 0.0000000000000000e+00 0.0000000000000000e+00  0.0000000000000000e+00 0.0000000000000000e+00 0.0000000000000000e+00  0.0000000000000000e+00 0.0000000000000000e+00 0.0000000000000000e+00  0.0000000000000000e+00 0.0000000000000000e+00 0.0000000000000000e+00  0.0000000000000000e+00 0.0000000000000000e+00 0.0000000000000000e+00  0.0000000000000000e+00 0.0000000000000000e+00 0.0000000000000000e+00  0.0000000000000000e+00 0.0000000000000000e+00 0.0000000000000000e+00  0.0000000000000000e+00 0.0000000000000000e+00 0.0000000000000000e+00  0.0000000000000000e+00 0.0000000000000000e+00 0.0000000000000000e+00  0.0000000000000000e+00 0.0000000000000000e+00 0.0000000000000000e+00  0.0000000000000000e+00 0.0000000000000000e+00 0.0000000000000000e+00  0.0000000000000000e+00 0.0000000000000000e+00 0.0000000000000000e+00  0.0000000000000000e+00 0.0000000000000000e+00 0.0000000000000000e+00  0.0000000000000000e+00 0.0000000000000000e+00 0.0000000000000000e+00  0.0000000000000000e+00 0.0000000000000000e+00 0.0000000000000000e+00  0.0000000000000000e+00 0.0000000000000000e+00 0.0000000000000000e+00  0.0000000000000000e+00 0.0000000000000000e+00 0.0000000000000000e+00  0.0000000000000000e+00 0.0000000000000000e+00 0.0000000000000000e+00  0.0000000000000000e+00 0.0000000000000000e+00 0.0000000000000000e+00  0.0000000000000000e+00 0.0000000000000000e+00 0.0000000000000000e+00  0.0000000000000000e+00 0.0000000000000000e+00 0.0000000000000000e+00  0.0000000000000000e+00 0.0000000000000000e+00 0.0000000000000000e+00  0.0000000000000000e+00 0.0000000000000000e+00 0.0000000000000000e+00  0.0000000000000000e+00 0.0000000000000000e+00 0.0000000000000000e+00  0.0000000000000000e+00 0.0000000000000000e+00 0.0000000000000000e+00  0.0000000000000000e+00 0.0000000000000000e+00 0.0000000000000000e+00  0.0000000000000000e+00 0.0000000000000000e+00 0.0000000000000000e+00  0.0000000000000000e+00 0.0000000000000000e+00 0.0000000000000000e+00  0.0000000000000000e+00 0.0000000000000000e+00 0.0000000000000000e+00  0.0000000000000000e+00 0.0000000000000000e+00 0.0000000000000000e+00  0.0000000000000000e+00 0.0000000000000000e+00 0.0000000000000000e+00  0.0000000000000000e+00 0.0000000000000000e+00 0.0000000000000000e+00  0.0000000000000000e+00 0.0000000000000000e+00 0.0000000000000000e+00  0.0000000000000000e+00 0.0000000000000000e+00 0.0000000000000000e+00  0.0000000000000000e+00 0.0000000000000000e+00 0.0000000000000000e+00  0.0000000000000000e+00 0.0000000000000000e+00 0.0000000000000000e+00  0.0000000000000000e+00 0.0000000000000000e+00 0.0000000000000000e+00  0.0000000000000000e+00 0.0000000000000000e+00 0.0000000000000000e+00  0.0000000000000000e+00 0.0000000000000000e+00 0.0000000000000000e+00  0.0000000000000000e+00 0.0000000000000000e+00 0.0000000000000000e+00  0.0000000000000000e+00 0.0000000000000000e+00 0.0000000000000000e+00  0.0000000000000000e+00 0.0000000000000000e+00 0.0000000000000000e+00  0.0000000000000000e+00 0.0000000000000000e+00 0.0000000000000000e+00  0.0000000000000000e+00 0.0000000000000000e+00 0.0000000000000000e+00  0.0000000000000000e+00 0.0000000000000000e+00 0.0000000000000000e+00  0.0000000000000000e+00 0.0000000000000000e+00 0.0000000000000000e+00  0.0000000000000000e+00 0.0000000000000000e+00 0.0000000000000000e+00  0.0000000000000000e+00 0.0000000000000000e+00 0.0000000000000000e+00  0.0000000000000000e+00 0.0000000000000000e+00 0.0000000000000000e+00  0.0000000000000000e+00 0.0000000000000000e+00 0.0000000000000000e+00  0.0000000000000000e+00 0.0000000000000000e+00 0.0000000000000000e+00  0.0000000000000000e+00 0.0000000000000000e+00 0.0000000000000000e+00  0.0000000000000000e+00 0.0000000000000000e+00 0.0000000000000000e+00  0.0000000000000000e+00 0.0000000000000000e+00 0.0000000000000000e+00  0.0000000000000000e+00 0.0000000000000000e+00 0.0000000000000000e+00  0.0000000000000000e+00 0.0000000000000000e+00 0.0000000000000000e+00  0.0000000000000000e+00 0.0000000000000000e+00 0.0000000000000000e+00  0.0000000000000000e+00 0.0000000000000000e+00 0.0000000000000000e+00  0.0000000000000000e+00 0.0000000000000000e+00 0.0000000000000000e+00  0.0000000000000000e+00 0.0000000000000000e+00 0.0000000000000000e+00  0.0000000000000000e+00 0.0000000000000000e+00 0.0000000000000000e+00  0.0000000000000000e+00 0.0000000000000000e+00 0.0000000000000000e+00  0.0000000000000000e+00 0.0000000000000000e+00 0.0000000000000000e+00  0.0000000000000000e+00 0.0000000000000000e+00 0.0000000000000000e+00  0.0000000000000000e+00 0.0000000000000000e+00 0.0000000000000000e+00  0.0000000000000000e+00 0.0000000000000000e+00 0.0000000000000000e+00  0.0000000000000000e+00 0.0000000000000000e+00 0.0000000000000000e+00  0.0000000000000000e+00 0.0000000000000000e+00 0.0000000000000000e+00  0.0000000000000000e+00 0.0000000000000000e+00 0.0000000000000000e+00  0.0000000000000000e+00 0.0000000000000000e+00 0.0000000000000000e+00  0.0000000000000000e+00 0.0000000000000000e+00 0.0000000000000000e+00  0.0000000000000000e+00 0.0000000000000000e+00 0.0000000000000000e+00  0.0000000000000000e+00 0.0000000000000000e+00 0.0000000000000000e+00  0.0000000000000000e+00 0.0000000000000000e+00 0.0000000000000000e+00  0.0000000000000000e+00 0.0000000000000000e+00 0.0000000000000000e+00  0.0000000000000000e+00 0.0000000000000000e+00 0.0000000000000000e+00  0.0000000000000000e+00 0.0000000000000000e+00 0.0000000000000000e+00  0.0000000000000000e+00 0.0000000000000000e+00 0.0000000000000000e+00  0.0000000000000000e+00 0.0000000000000000e+00 0.0000000000000000e+00  0.0000000000000000e+00 0.0000000000000000e+00 0.0000000000000000e+00  0.0000000000000000e+00 0.0000000000000000e+00 0.0000000000000000e+00  0.0000000000000000e+00 0.0000000000000000e+00 0.0000000000000000e+00  0.0000000000000000e+00 0.0000000000000000e+00 0.0000000000000000e+00  0.0000000000000000e+00 0.0000000000000000e+00 0.0000000000000000e+00  0.0000000000000000e+00 0.0000000000000000e+00 0.0000000000000000e+00  0.0000000000000000e+00 0.0000000000000000e+00 0.0000000000000000e+00  0.0000000000000000e+00 0.0000000000000000e+00 0.0000000000000000e+00  0.0000000000000000e+00 0.0000000000000000e+00 0.0000000000000000e+00  0.0000000000000000e+00 0.0000000000000000e+00 0.0000000000000000e+00  0.0000000000000000e+00 0.0000000000000000e+00 0.0000000000000000e+00  0.0000000000000000e+00 0.0000000000000000e+00 0.0000000000000000e+00  0.0000000000000000e+00 0.0000000000000000e+00 0.0000000000000000e+00  0.0000000000000000e+00 0.0000000000000000e+00 0.0000000000000000e+00  0.0000000000000000e+00 0.0000000000000000e+00 0.0000000000000000e+00  0.0000000000000000e+00 0.0000000000000000e+00 0.0000000000000000e+00  0.0000000000000000e+00 0.0000000000000000e+00 0.0000000000000000e+00  0.0000000000000000e+00 0.0000000000000000e+00 0.0000000000000000e+00  0.0000000000000000e+00 0.0000000000000000e+00 0.0000000000000000e+00  0.0000000000000000e+00 0.0000000000000000e+00 0.0000000000000000e+00  0.0000000000000000e+00 0.0000000000000000e+00 0.0000000000000000e+00  0.0000000000000000e+00 0.0000000000000000e+00 0.0000000000000000e+00  0.0000000000000000e+00 0.0000000000000000e+00 0.0000000000000000e+00  0.0000000000000000e+00 0.0000000000000000e+00 0.0000000000000000e+00  0.0000000000000000e+00 0.0000000000000000e+00 0.0000000000000000e+00  0.0000000000000000e+00 0.0000000000000000e+00 0.0000000000000000e+00  0.0000000000000000e+00 0.0000000000000000e+00 0.0000000000000000e+00  0.0000000000000000e+00 0.0000000000000000e+00 0.0000000000000000e+00  0.0000000000000000e+00 0.0000000000000000e+00 0.0000000000000000e+00  0.0000000000000000e+00 0.0000000000000000e+00 0.0000000000000000e+00  0.0000000000000000e+00 0.0000000000000000e+00 0.0000000000000000e+00  0.0000000000000000e+00 0.0000000000000000e+00 0.0000000000000000e+00  0.0000000000000000e+00 0.0000000000000000e+00 0.0000000000000000e+00  0.0000000000000000e+00 0.0000000000000000e+00 0.0000000000000000e+00  0.0000000000000000e+00 0.0000000000000000e+00 0.0000000000000000e+00  0.0000000000000000e+00 0.0000000000000000e+00 0.0000000000000000e+00  0.0000000000000000e+00 0.0000000000000000e+00 0.0000000000000000e+00  0.0000000000000000e+00 0.0000000000000000e+00 0.0000000000000000e+00  0.0000000000000000e+00 0.0000000000000000e+00 0.0000000000000000e+00  0.0000000000000000e+00 0.0000000000000000e+00 0.0000000000000000e+00  0.0000000000000000e+00 0.0000000000000000e+00 0.0000000000000000e+00  0.0000000000000000e+00 0.0000000000000000e+00 0.0000000000000000e+00  0.0000000000000000e+00 0.0000000000000000e+00 0.0000000000000000e+00  0.0000000000000000e+00 0.0000000000000000e+00 0.0000000000000000e+00  0.0000000000000000e+00 0.0000000000000000e+00 0.0000000000000000e+00  0.0000000000000000e+00 0.0000000000000000e+00 0.0000000000000000e+00  0.0000000000000000e+00 0.0000000000000000e+00 0.0000000000000000e+00  0.0000000000000000e+00 0.0000000000000000e+00 0.0000000000000000e+00  0.0000000000000000e+00 0.0000000000000000e+00 0.0000000000000000e+00  0.0000000000000000e+00 0.0000000000000000e+00 0.0000000000000000e+00  0.0000000000000000e+00 0.0000000000000000e+00 0.0000000000000000e+00  0.0000000000000000e+00 0.0000000000000000e+00 0.0000000000000000e+00  0.0000000000000000e+00 0.0000000000000000e+00 0.0000000000000000e+00  0.0000000000000000e+00 0.0000000000000000e+00 0.0000000000000000e+00  0.0000000000000000e+00 0.0000000000000000e+00 0.0000000000000000e+00  0.0000000000000000e+00 0.0000000000000000e+00 0.0000000000000000e+00  0.0000000000000000e+00 0.0000000000000000e+00 0.0000000000000000e+00  0.0000000000000000e+00 0.0000000000000000e+00 0.0000000000000000e+00  0.0000000000000000e+00 0.0000000000000000e+00 0.0000000000000000e+00  0.0000000000000000e+00 0.0000000000000000e+00 0.0000000000000000e+00  0.0000000000000000e+00 0.0000000000000000e+00 0.0000000000000000e+00  0.0000000000000000e+00 0.0000000000000000e+00 0.0000000000000000e+00  0.0000000000000000e+00 0.0000000000000000e+00 0.0000000000000000e+00  0.0000000000000000e+00 0.0000000000000000e+00 0.0000000000000000e+00  0.0000000000000000e+00 0.0000000000000000e+00 0.0000000000000000e+00  0.0000000000000000e+00 0.0000000000000000e+00 0.0000000000000000e+00  0.0000000000000000e+00 0.0000000000000000e+00 0.0000000000000000e+00  0.0000000000000000e+00 0.0000000000000000e+00 0.0000000000000000e+00  0.0000000000000000e+00 0.0000000000000000e+00 0.0000000000000000e+00  0.0000000000000000e+00 0.0000000000000000e+00 0.0000000000000000e+00  0.0000000000000000e+00 0.0000000000000000e+00 0.0000000000000000e+00  0.0000000000000000e+00 0.0000000000000000e+00 0.0000000000000000e+00  0.0000000000000000e+00 0.0000000000000000e+00 0.0000000000000000e+00  0.0000000000000000e+00 0.0000000000000000e+00 0.0000000000000000e+00  0.0000000000000000e+00 0.0000000000000000e+00 0.0000000000000000e+00  0.0000000000000000e+00 0.0000000000000000e+00 0.0000000000000000e+00  0.0000000000000000e+00 0.0000000000000000e+00 0.0000000000000000e+00  0.0000000000000000e+00 0.0000000000000000e+00 0.0000000000000000e+00  0.0000000000000000e+00 0.0000000000000000e+00 0.0000000000000000e+00  0.0000000000000000e+00 0.0000000000000000e+00 0.0000000000000000e+00  0.0000000000000000e+00 0.0000000000000000e+00 0.0000000000000000e+00  0.0000000000