<?xml version="1.0"?>
<VTKFile type="UnstructuredGrid"  version="0.1"  >
<UnstructuredGrid>
<Piece  NumberOfPoints="1848" NumberOfCells="3550">
<Points>
<DataArray  type="Float64"  NumberOfComponents="3"  format="ascii">-0.5647289140121814 -0.5148184282296806 0  -0.5738758794709186 -0.6295118519860184 0  -0.5414938120988851 -0.7170536912993035 0  -0.4619744698998414 -0.7461143871446099 0  -0.3573416565994497 -0.7176387881239428 0  -0.2553048409630619 -0.6590177615536016 0  -0.1690148457950141 -0.5940255667005798 0  -0.09974400812917499 -0.5335833149968118 0  -0.04453768845981301 -0.4806382035030679 0  -2.663382251673325e-17 -0.4349633304112949 0  0.03664156249295005 -0.3954254335863858 0  0.06744681880122363 -0.3608086123362801 0  0.09390856033913296 -0.3300543541668852 0  0.1171110115019307 -0.3022983675599273 0  0.1378531160078902 -0.2768463773645698 0  0.1567361033734041 -0.2531374985661777 0  0.1742241342013972 -0.2307100390645337 0  0.1906863893855178 -0.2091730048687078 0  0.206426801086597 -0.1881828938505359 0  0.2217057017191109 -0.1674243742758016 0  0.2367563013733438 -0.1465932954878121 0  0.2517980096225921 -0.1253805108865454 0  0.2670480577244196 -0.1034549687190522 0  0.2827325366125887 -0.0804443423912367 0  0.2990977486073078 -0.05591105911676318 0  0.3164225663951524 -0.02932086875543553 0  0.3350321051414988 0 0  0.355311988826463 0.03292450443816741 0  0.3777196863677262 0.07060804640759238 0  0.4027818515322424 0.1146013174211845 0  0.4310466796525063 0.1669883733283692 0  0.4629088346080094 0.2305012111256976 0  0.4980989388368103 0.3084098057771531 0  0.5343738044433499 0.4035403651984446 0  0.5647289140121813 0.5148184282296804 0  0.5738758794709186 0.6295118519860184 0  0.5414938120988851 0.7170536912993035 0  0.4619744698998415 0.7461143871446099 0  0.3573416565994498 0.717638788123943 0  0.2553048409630619 0.6590177615536017 0  0.1690148457950141 0.59402556670058 0  0.09974400812917499 0.5335833149968118 0  0.04453768845981301 0.4806382035030679 0  2.663382251673325e-17 0.4349633304112949 0  -0.03664156249295005 0.3954254335863858 0  -0.06744681880122363 0.3608086123362801 0  -0.09390856033913296 0.3300543541668852 0  -0.1171110115019307 0.3022983675599273 0  -0.1378531160078902 0.2768463773645698 0  -0.1567361033734041 0.2531374985661777 0  -0.1742241342013972 0.2307100390645337 0  -0.1906863893855178 0.2091730048687078 0  -0.206426801086597 0.1881828938505359 0  -0.2217057017191109 0.1674243742758017 0  -0.2367563013733438 0.1465932954878121 0  -0.2517980096225921 0.1253805108865454 0  -0.2670480577244196 0.1034549687190522 0  -0.2827325366125887 0.0804443423912367 0  -0.2990977486073078 0.05591105911676318 0  -0.3164225663951524 0.02932086875543553 0  -0.3350321051414988 0 0  -0.355311988826463 -0.03292450443816741 0  -0.3777196863677262 -0.07060804640759238 0  -0.4027818515322423 -0.1146013174211845 0  -0.4310466796525063 -0.1669883733283692 0  -0.4629088346080095 -0.2305012111256977 0  -0.4980989388368103 -0.3084098057771531 0  -0.53437380444335 -0.4035403651984446 0  -1.1 1.1 0  -1.1 0 0  1.1 0 0  1.1 1.1 0  -1.1 -1.1 0  1.1 -1.1 0  -1.1 -0.55 0  0.6443846341202892 0 0  1.1 0.55 0  0 1.1 0  -0.6443846341202892 0 0  0 -1.1 0  0.489708369630894 0 0  0.55 1.1 0  -0.489708369630894 0 0  -0.55 -1.1 0  0.4123702373861964 0 0  -0.4123702373861964 0 0  0.3737011712638476 0 0  -0.3737011712638476 0 0  -0.55 1.1 0  0.55 -1.1 0  -1.1 0.55 0  1.1 -0.55 0  -0.5774997023113853 0.563200067536401 0  0.5774997023113853 -0.563200067536401 0  -0.2332959789970062 0.7719416904508294 0  0.275 -0.8168076791700993 0  -0.8250000000000001 1.1 0  0.8250000000000001 -1.1 0  -1.1 0.275 0  -1.1 -0.275 0  1.1 0.275 0  1.1 -0.275 0  -1.1 -0.8250000000000001 0  1.1 0.8250000000000001 0  1.1 -0.8250000000000001 0  -1.1 0.8250000000000001 0  -0.8250000000000001 -1.1 0  0.8250000000000001 1.1 0  -0.7735600213091911 0.3009123255131874 0  0.7735600213091911 -0.3009123255131874 0  0.790465647011614 -0.790465647011614 0  -0.790465647011614 0.790465647011614 0  0.8402456871579467 0.4125000000000001 0  -0.8402456871579467 -0.4125 0  -0.8126936734246126 -0.8126936734246126 0  0.8208256229673785 0.7706195701597452 0  0.004207785023098265 0.005572007870803752 0  -0.4882745479923623 0.285687820852216 0  0.4882745479923623 -0.285687820852216 0  -0.275 -1.1 0  0.275 -1.1 0  -0.275 1.1 0  0.275 1.1 0  0.2954143468917513 -0.5301963341369414 0  -0.5029851570495844 0.8284871216795358 0  -0.3072275580071103 0.505693356273559 0  -0.004671972982655592 -0.8203446843944892 0  0.03275370068619696 0.8297250573246426 0  0.8721923170601447 0 0  -0.8721923170601447 0 0  0.1594795657822183 0.2189084230795097 0  -0.1622770796992438 -0.2224771401683081 0  0.5345835483611487 -0.8398519816076525 0  -0.8255361201452336 0.544186007220308 0  0.8467428548626579 -0.5434536802116666 0  0.7116569507892534 0.2208069679162278 0  -0.7116569507892534 -0.2208069679162278 0  0.3168736600923183 0.4319954054811216 0  -0.3168736600923185 -0.4319954054811218 0  0.6875 0.9370259287209942 0  0.1331923285142307 -0.662674508611629 0  -0.1241638029291845 0.5982491820865834 0  -0.1319915193486402 0.9468822707661264 0  -0.779018513048252 -0.609329980441554 0  0.3589937237759315 0.9180413235997378 0  -0.358993723775931 -0.9180413235997377 0  0.1369253534853015 -0.9578458167153653 0  -0.9597938061793148 0.6875 0  -0.9127571065080829 -0.198253452764127 0  0.9127571065080829 0.198253452764127 0  -0.6875 0.9586470462815765 0  0.420796959401988 -0.6805459387350318 0  0.6875 -0.9613209066492647 0  -0.6270707768164659 -0.9067204406527285 0  -0.9619728773445916 -0.6875 0  -0.1628925656019308 -0.9378847646225317 0  0.9314318777835778 -0.9314318777835779 0  -0.9625000000000001 -1.1 0  -1.1 -0.9625000000000001 0  -0.9314318777835778 0.9314318777835779 0  0.9339031576368003 0.9339031576368003 0  -0.9449970712459248 0.3914735827955433 0  0.9574104035550686 -0.6985841342924866 0  -0.415479075231907 0.6607997261760898 0  1.1 -0.4125 0  0.4125 -1.1 0  0.1375 1.1 0  0.90946506562952 0.5958399594893536 0  -1.1 0.1375 0  -0.9179672228917661 0.1816248725012442 0  0.9286166718446256 -0.1851155224668505 0  -0.3420187653464757 0.9248003777358115 0  0.7362696874512191 0.5588492585965881 0  0.9263866788528928 -0.3871109456098767 0  0.2082638527518723 0.8281140484900579 0  0.5248060121945816 0.9005543628031059 0  -0.7582884755902169 0.1252879380520061 0  -0.6255078733070081 0.3946647159042865 0  0.6255078733070081 -0.3946647159042865 0  0.7582884755902169 -0.1292857687369554 0  0.5948721296472662 -0.1584405786510595 0  -0.5670465018755917 0.1432356562464506 0  -0.89375 -0.9531384744046074 0  0.3155676838468908 -0.3477774976660757 0  0.4472270861068231 -0.4546456869337784 0  -0.3195958065476507 0.324767591485069 0  0.3954740292905822 -0.933289973479454 0  0.1671204360856271 0.04901773684410449 0  0.01698962288882282 -0.1612102517723862 0  -0.7091497308232801 0.6532493216449271 0  0.6432025982197558 -0.7150470361409429 0  -0.1606571198605911 -0.04886494473880954 0  -0.02160696251586107 0.1648877418207795 0  0.6871394560609285 0.4138336833108838 0  -0.688263055712501 -0.3754752514711991 0  0.3095520489356897 0.2676864323933507 0  0.03726958251948602 0.6750987768556955 0  -0.03935905619160907 -0.6727041011533731 0  -0.3115197203665421 -0.2666993209021057 0  -0.9152122291968994 -0.5437574105271168 0  -1.1 -0.4125 0  -0.1566243532314523 -0.781062063100448 0  1.1 0.6875 0  0.4165443495077914 -0.1519801246126446 0  0.9658103719060648 0.3356032137014749 0  -0.9658103719060648 -0.3356032137014749 0  -0.5839087679031144 -0.1390761928755171 0  0.5839087679031143 0.1390761928755171 0  0.1423333287472093 -0.5083067906639799 0  -0.4752614905681963 0.4429716171164753 0  0.9685082499001167 0.7562500000000001 0  -0.4158768607925063 0.1526485842106877 0  0.4103831384410911 0.5644359290502264 0  -0.4103831384410913 -0.5644359290502264 0  -0.6479626317679694 0.8188310822945971 0  0.1216267546545162 0.95071682257472 0  -0.6899009952488525 -0.7285570183341954 0  -0.08896806453050062 0.7487910726843793 0  0.2771005131791446 -0.6729245969393325 0  0.1667542613036276 0.3782071610916259 0  0.6725998457367501 0.7884740854031415 0  -0.1671900488895984 -0.3806470009132815 0  -0.1857656579805791 0.4358518290620153 0  0.1351568363093799 -0.8180086786661703 0  -0.002903455806733866 -0.9601818224436841 0  -0.7523129632173704 -0.9764504944004334 0  -0.278465405071061 0.6410955012021141 0  -0.4797587904321944 0.9723359272911971 0  -0.5483714619179123 0.6981268991685581 0  1.1 0.4125 0  1.1 -0.6875 0  -1.1 0.9625000000000001 0  -0.6875 -1.1 0  -0.9625000000000001 1.1 0  1.1 -0.9625000000000001 0  -0.1375 -1.1 0  -1.1 -0.6875 0  1.1 -0.1375 0  1.1 0.1375 0  -1.1 -0.1375 0  -1.1 0.6875 0  -0.4125 -1.1 0  0.6875 -1.1 0  0.4125 1.1 0  0.9625000000000001 -1.1 0  0.6875 1.1 0  0.1375 -1.1 0  -0.1375 1.1 0  -0.6875 1.1 0  1.1 0.9625000000000001 0  0.9625000000000001 1.1 0  -1.1 0.4125 0  -0.4125 1.1 0  -0.9627015630240402 0.5502321609230052 0  -0.9512668605249929 -0.8263303590017115 0  -0.369432194300773 0.7902075978306167 0  0.8019035622250388 0.1176585580384471 0  -0.8019035622250388 -0.1176585580384471 0  0.7089090043683032 -0.5095273259727546 0  -0.491695284711853 -0.8807217089375685 0  -0.04175080967453128 -0.2822362688456266 0  0.04174908160241213 0.2830342764916047 0  0.962458577651645 0.4710956889022327 0  0.7668162920233669 -0.6551607140881466 0  0.9860961585300724 0 0  -0.9860961585300724 0 0  0.2643523673495418 0.138507931964844 0  -0.2616757214937634 -0.1347360047837593 0  0.5218316321494634 -0.9711384651178567 0  -0.6708422557228739 0.2213680552752831 0  0.2683602138601083 -0.968316054012567 0  0.1217796522356484 -0.07732360123771384 0  -0.1226129403383433 0.0784903176630474 0  0.4117716295028089 -0.8072822677577132 0  -0.005522753878931265 0.9713118100955858 0  0.9743210980811516 -0.5099869793334564 0  0.8050069312190873 -0.4237352725370912 0  -0.8342769894939525 0.6718000400131653 0  -0.7409724806899598 -0.4895572963233
[...]
<PointData  Vectors="f_112"> 
<DataArray  type="Float64"  Name="f_112"  NumberOfComponents="3" format="ascii">-6.9392791318784707e-16 -3.1861677360483360e-16 0.0000000000000000e+00  -6.6794518840944778e-16 -1.5128521870151897e-15 0.0000000000000000e+00  -8.9941488979815186e-16 -8.3236070963607909e-16 0.0000000000000000e+00  -9.8680582139012114e-16 -1.3231405601541207e-15 0.0000000000000000e+00  -3.3116568214074723e-16 -7.7220503138925376e-16 0.0000000000000000e+00  -4.6371159366153576e-16 -7.1697720792965356e-16 0.0000000000000000e+00  -2.2716098453534850e-16 -1.1575551122266841e-15 0.0000000000000000e+00  -1.9995593026473195e-16 -5.0006833101203731e-16 0.0000000000000000e+00  -6.4436872859887850e-17 -5.5036428303504851e-16 0.0000000000000000e+00  -2.0253074621981414e-17 -4.5044881043662689e-16 0.0000000000000000e+00  6.7920162211076757e-17 1.6487252439785186e-16 0.0000000000000000e+00  2.4514287309510289e-17 -5.2482643221797931e-16 0.0000000000000000e+00  7.2956076083904533e-17 -1.6856214505246389e-16 0.0000000000000000e+00  8.8989874187347521e-17 -2.6805988621656456e-16 0.0000000000000000e+00  7.7037121752946507e-17 -6.3350135422073689e-17 0.0000000000000000e+00  1.9234728416853388e-16 -2.6968404507526639e-16 0.0000000000000000e+00  6.3249865542441150e-17 5.4650437822702584e-17 0.0000000000000000e+00  1.3524888639161723e-16 -2.5480343890578740e-16 0.0000000000000000e+00  2.3952601187913155e-17 -3.0856618894460871e-17 0.0000000000000000e+00  2.3223260931647357e-16 -1.8006595087620551e-16 0.0000000000000000e+00  1.9325286369969953e-16 -1.7657498314993103e-16 0.0000000000000000e+00  1.6289835757909863e-16 -3.8824151906743245e-17 0.0000000000000000e+00  2.2163906327774241e-16 -1.3323656707284491e-16 0.0000000000000000e+00  2.6642485220130192e-16 -7.9415278397685836e-17 0.0000000000000000e+00  1.4907873849733794e-16 -7.3258700838937296e-17 0.0000000000000000e+00  3.4225764262456153e-16 -2.2446429847445695e-17 0.0000000000000000e+00  3.2295090032288273e-16 -1.2846561342180880e-18 0.0000000000000000e+00  3.9533627787515691e-16 2.8828032974280760e-17 0.0000000000000000e+00  -1.8962263884147950e-16 3.6095716452929736e-18 0.0000000000000000e+00  4.4525332361975461e-16 6.3297675675410172e-17 0.0000000000000000e+00  -7.6481964637446647e-18 2.2700257775065017e-16 0.0000000000000000e+00  6.6427541644402592e-16 3.1395758042284263e-16 0.0000000000000000e+00  1.0076930377475263e-15 6.3541594570458317e-16 0.0000000000000000e+00  2.2791164404427893e-16 4.1722983338496789e-16 0.0000000000000000e+00  6.9913017884822161e-16 5.9449659983745759e-16 0.0000000000000000e+00  7.6802283250091881e-16 8.5683891023299247e-16 0.0000000000000000e+00  7.6402273998525366e-16 1.0841007852174651e-15 0.0000000000000000e+00  7.5451194056023566e-16 1.5561389347583357e-15 0.0000000000000000e+00  5.7409380756100324e-16 7.7221107749819379e-16 0.0000000000000000e+00  4.9624004466225290e-16 1.0971511956359563e-15 0.0000000000000000e+00  2.4491991552758027e-16 1.3028216313001483e-15 0.0000000000000000e+00  1.8763817550364416e-16 8.9933045461398401e-16 0.0000000000000000e+00  4.2594880223325076e-17 4.7355471051462743e-16 0.0000000000000000e+00  -5.4099008233937667e-18 3.6000938418217488e-17 0.0000000000000000e+00  -7.3482562542261381e-17 3.8046009487083779e-16 0.0000000000000000e+00  -4.9866307058155189e-17 4.3682822442393651e-16 0.0000000000000000e+00  2.7424786534850421e-18 1.5392724890136049e-16 0.0000000000000000e+00  -1.5309528417335416e-16 4.4100960973600978e-16 0.0000000000000000e+00  -6.5233856083904017e-18 2.0043741361271469e-16 0.0000000000000000e+00  -1.2836620793635047e-16 -9.0651504236091617e-18 0.0000000000000000e+00  5.9872039884420765e-18 7.7785536846774778e-18 0.0000000000000000e+00  -2.4446225597824405e-16 2.5342137204874975e-16 0.0000000000000000e+00  -2.4204412870411727e-16 1.6215114361084585e-16 0.0000000000000000e+00  -2.5730761209710829e-16 1.4516150687972424e-16 0.0000000000000000e+00  -3.2358546311838099e-16 3.7202505913851504e-16 0.0000000000000000e+00  -1.9290935321058027e-16 -1.1617875248380987e-17 0.0000000000000000e+00  -4.3001306754964060e-16 1.0277897204338679e-16 0.0000000000000000e+00  -4.5599369863036724e-16 1.2342605513369813e-16 0.0000000000000000e+00  -1.3121420006473771e-17 3.3109441926498454e-17 0.0000000000000000e+00  -3.2151352702109105e-16 1.6601561551410933e-17 0.0000000000000000e+00  -1.8362230887901188e-16 -2.9416174775422333e-21 0.0000000000000000e+00  -4.3491296571040194e-16 -5.0828634397453736e-20 0.0000000000000000e+00  -8.1230960416555277e-19 -8.2259358375779939e-17 0.0000000000000000e+00  1.3509364522244595e-17 -6.4679007979909230e-17 0.0000000000000000e+00  -5.8884797880008790e-16 -2.2508061466644366e-16 0.0000000000000000e+00  -1.2916939718945297e-15 -6.2314861744369489e-16 0.0000000000000000e+00  -1.8197742664518184e-15 -8.6173652368986633e-16 0.0000000000000000e+00  -9.3053382000923801e-16 -5.8756076303874909e-16 0.0000000000000000e+00  -2.1377492510832786e-15 2.3105774513746499e-15 0.0000000000000000e+00  -4.0148558070106882e-16 -1.3822197857584084e-17 0.0000000000000000e+00  1.1547638617820133e-15 1.4163866552959866e-18 0.0000000000000000e+00  2.4515786731306830e-15 1.7585704497964978e-15 0.0000000000000000e+00  -6.9167353040140695e-16 -8.9049481032303767e-16 0.0000000000000000e+00  1.9456005092943953e-15 -1.2688787295806659e-15 0.0000000000000000e+00  -1.8766873186701634e-15 -9.5683340595267654e-16 0.0000000000000000e+00  1.2565522331812903e-15 -1.0620897738130288e-17 0.0000000000000000e+00  2.0633417681642558e-15 1.0405490777776497e-15 0.0000000000000000e+00  -1.4616158787313354e-17 1.0261138885192498e-15 0.0000000000000000e+00  -8.2756479874842958e-16 9.8097766769152944e-18 0.0000000000000000e+00  -4.9591973301942014e-18 -2.3472783765277175e-15 0.0000000000000000e+00  1.0486890420434354e-15 -6.3596133942866344e-18 0.0000000000000000e+00  9.0619654136243087e-16 1.5756743440454367e-15 0.0000000000000000e+00  -4.9173629629205255e-16 -1.1656962358930720e-17 0.0000000000000000e+00  -1.1172579952653561e-15 -1.4632960121065131e-15 0.0000000000000000e+00  -2.2139582150440663e-16 -6.5993447477109584e-18 0.0000000000000000e+00  -2.3659400470060740e-16 2.7882679047567369e-17 0.0000000000000000e+00  -7.0259936818865909e-17 -1.1103940278628122e-17 0.0000000000000000e+00  2.4679632366093436e-16 2.3470434255747155e-18 0.0000000000000000e+00  -7.0822459554003579e-16 1.6749748280350033e-15 0.0000000000000000e+00  6.4765391621827395e-16 -8.9569487110359006e-16 0.0000000000000000e+00  -2.3028084258588904e-15 6.1598126798284753e-16 0.0000000000000000e+00  1.7968381576226617e-15 -9.9470899330583495e-16 0.0000000000000000e+00  -2.3094588633638016e-15 2.3137474951287553e-15 0.0000000000000000e+00  2.2600101067067994e-15 -1.8365734893191530e-15 0.0000000000000000e+00  -6.7420730255778934e-16 1.3722060364547055e-15 0.0000000000000000e+00  1.2374088863662273e-15 -3.0394263196814454e-15 0.0000000000000000e+00  -1.4073871677016931e-15 2.5143300963542990e-15 0.0000000000000000e+00  1.3867432350446633e-15 -1.0885550225843742e-15 0.0000000000000000e+00  -1.6401535629806314e-15 4.2888923996208300e-16 0.0000000000000000e+00  -1.1669297862117156e-15 -2.6150589205343914e-16 0.0000000000000000e+00  3.1404513933584468e-15 4.8654000707729422e-16 0.0000000000000000e+00  1.6147529044027999e-15 -3.2441749846632213e-16 0.0000000000000000e+00  -1.9382106078480508e-15 -1.0346082728003321e-15 0.0000000000000000e+00  9.5129297516463052e-16 1.2928799109897191e-15 0.0000000000000000e+00  1.9289253897823951e-15 -8.2016313173270303e-16 0.0000000000000000e+00  -1.7419827339408157e-15 1.3617706082148592e-15 0.0000000000000000e+00  -1.3573475729326467e-15 -2.2998948161024563e-15 0.0000000000000000e+00  1.2595361110195545e-15 1.8087293065058588e-15 0.0000000000000000e+00  -1.2811663095395069e-15 7.7042246557983668e-16 0.0000000000000000e+00  3.0559262617349053e-15 -1.0872811907433911e-15 0.0000000000000000e+00  1.8160375053216252e-15 -1.8221531396198622e-15 0.0000000000000000e+00  -2.0610331435549860e-15 1.6424317912545997e-15 0.0000000000000000e+00  1.1647640981135100e-15 1.2465547181504139e-15 0.0000000000000000e+00  -2.0946178946536259e-15 -8.2443226251986781e-16 0.0000000000000000e+00  -2.5157857315394177e-15 -1.5944037211155694e-15 0.0000000000000000e+00  2.6642325684830609e-15 2.6564085533388451e-15 0.0000000000000000e+00  1.2225710326620543e-16 2.0164384221109890e-17 0.0000000000000000e+00  -1.5823155843270739e-15 1.0550592752017229e-15 0.0000000000000000e+00  2.4522939180943309e-15 -1.1591680519079615e-15 0.0000000000000000e+00  -5.5167865568005477e-16 -1.9253469819558664e-15 0.0000000000000000e+00  6.1221235271809520e-16 -3.0297022545932134e-16 0.0000000000000000e+00  -3.3620283348224745e-16 1.1667902344357555e-15 0.0000000000000000e+00  6.2523506943137790e-16 1.0543833137094450e-15 0.0000000000000000e+00  1.7105426903022502e-15 -2.0559204135266741e-15 0.0000000000000000e+00  -1.5358589557419602e-15 1.3750632101244384e-15 0.0000000000000000e+00  -1.2513699822116489e-15 1.3817479037673476e-15 0.0000000000000000e+00  1.6255033170036058e-16 -1.5376165921409698e-15 0.0000000000000000e+00  -7.4637585150128557e-17 1.7099397088146897e-15 0.0000000000000000e+00  9.3727235736064034e-16 -1.2066292453042685e-17 0.0000000000000000e+00  -7.0754515578847457e-16 -4.8976189641740184e-18 0.0000000000000000e+00  4.8230421331433588e-16 5.3518666522224138e-16 0.0000000000000000e+00  -2.5277766841694644e-16 -5.7201649640652787e-16 0.0000000000000000e+00  1.4461443291590949e-15 -1.8159969742186239e-15 0.0000000000000000e+00  -2.6568020498971914e-15 1.8230409675336137e-15 0.0000000000000000e+00  2.7805399509678274e-15 -1.6572237785928069e-15 0.0000000000000000e+00  1.6239718460873346e-15 6.7700348212216621e-16 0.0000000000000000e+00  -1.7071182344242547e-15 -6.6303002871084109e-16 0.0000000000000000e+00  3.8379450956292525e-16 7.6331736621731318e-16 0.0000000000000000e+00  -3.0084620863522285e-16 -1.2436338651800925e-16 0.0000000000000000e+00  2.0188817365254518e-15 2.9727304953804850e-15 0.0000000000000000e+00  4.3107113647128955e-16 -1.9672364964963743e-15 0.0000000000000000e+00  -4.7845954615088916e-16 9.3440915767092830e-16 0.0000000000000000e+00  -2.4172214314854500e-16 2.0408933607730692e-15 0.0000000000000000e+00  -1.5272329804624648e-15 -1.9221376136676586e-15 0.0000000000000000e+00  8.6275778963051623e-16 2.1484030863098840e-15 0.0000000000000000e+00  -6.8365480740191126e-16 -1.7453784586621006e-15 0.0000000000000000e+00  3.6790860327608013e-16 -2.3050453017181895e-15 0.0000000000000000e+00  -1.6621611848426824e-15 1.3819169456617310e-15 0.0000000000000000e+00  -2.0194123175024267e-15 -6.2011931175838844e-16 0.0000000000000000e+00  1.8069498946178154e-15 2.1171098867634358e-16 0.0000000000000000e+00  -1.0469039317855821e-15 2.1839974298768786e-15 0.0000000000000000e+00  1.7535683633617330e-15 -2.8908381574764278e-15 0.0000000000000000e+00  1.3294614819804316e-15 -1.8427882538321494e-15 0.0000000000000000e+00  -1.0084260134108908e-15 -2.4168577436165596e-15 0.0000000000000000e+00  -1.1409302598382531e-15 -1.6746034664442596e-15 0.0000000000000000e+00  -2.1424565747976626e-16 -1.3915007323114931e-15 0.0000000000000000e+00  2.3269752458930484e-15 -1.5174913952450433e-15 0.0000000000000000e+00  -1.2912726269092271e-15 -1.3735080298420360e-15 0.0000000000000000e+00  -1.6483925729230904e-15 -1.1720805285417889e-15 0.0000000000000000e+00  -1.3285187402862098e-15 2.5844981919220920e-15 0.0000000000000000e+00  3.0926972774344386e-15 2.9588486292161363e-15 0.0000000000000000e+00  -9.7370423527277139e-16 1.2415668611756449e-15 0.0000000000000000e+00  2.3082657662090566e-15 -1.4014158437496266e-15 0.0000000000000000e+00  -1.3118861637107064e-15 7.0257405701798316e-16 0.0000000000000000e+00  1.8702534341941499e-15 -6.6598801849386836e-16 0.0000000000000000e+00  7.0441834551038326e-16 -1.4329676359959948e-15 0.0000000000000000e+00  2.0580090440820328e-16 1.5161866250673503e-15 0.0000000000000000e+00  8.6046542769259555e-16 4.2998213602997294e-16 0.0000000000000000e+00  -1.1402446414406775e-15 2.1735384546992799e-16 0.0000000000000000e+00  -2.2429041771154191e-15 5.4113476352287561e-16 0.0000000000000000e+00  1.1741643966246250e-15 -4.2525212595877353e-16 0.0000000000000000e+00  -9.9238207654728261e-16 2.7232595207564424e-15 0.0000000000000000e+00  5.9521298023392883e-16 1.0419678477227152e-15 0.0000000000000000e+00  2.9672167021627505e-15 -9.2574840555451281e-16 0.0000000000000000e+00  4.3467073172404199e-16 1.3309375233396207e-15 0.0000000000000000e+00  1.3369467014836752e-15 1.7125635367909270e-15 0.0000000000000000e+00  -1.8221500941339607e-15 4.6356545230248943e-16 0.0000000000000000e+00  -2.3889286614704365e-15 1.3800899425160487e-15 0.0000000000000000e+00  2.5992506145976727e-15 -1.7393707660693650e-15 0.0000000000000000e+00  1.7921476569321726e-15 -5.8213852429590378e-16 0.0000000000000000e+00  1.8776864201624476e-15 -7.1474096490834095e-16 0.0000000000000000e+00  -1.6832017753839123e-15 5.8912142471248893e-16 0.0000000000000000e+00  -1.7534403452239102e-15 -1.9734290041268789e-15 0.0000000000000000e+00  1.3184374937065344e-15 -1.0729605245066725e-15 0.0000000000000000e+00  2.1770485370022296e-15 -2.1774299258945888e-15 0.0000000000000000e+00  -1.2038755401072785e-15 1.1987728757781174e-15 0.0000000000000000e+00  8.9960403172491609e-16 -2.1548741982133502e-15 0.0000000000000000e+00  5.5562266504966753e-16 1.5707396779806077e-16 0.0000000000000000e+00  1.0547643402707073e-16 -3.7172495089644004e-16 0.0000000000000000e+00  -2.3505525677042600e-15 2.0100088065968812e-15 0.0000000000000000e+00  1.7407348510478705e-15 -2.0251197787607753e-15 0.0000000000000000e+00  -3.4462834377897540e-16 -8.6026673799840266e-17 0.0000000000000000e+00  7.5913858190650982e-17 3.4525102308608150e-16 0.0000000000000000e+00  1.3123820245741091e-15 1.0069221452738091e-15 0.0000000000000000e+00  -2.0731435970212168e-15 -9.7852907860965269e-16 0.0000000000000000e+00  9.5559707492790869e-16 9.3876878079358962e-16 0.0000000000000000e+00  -1.2721265857480700e-16 1.0748772974126208e-15 0.0000000000000000e+00  8.4674429016141191e-17 -2.0371071085050595e-15 0.0000000000000000e+00  -7.0745201637787526e-16 -4.1375851418724037e-16 0.0000000000000000e+00  -2.0992519285373805e-15 -1.3527891106755519e-15 0.0000000000000000e+00  -1.8014318176402593e-15 -4.0142733960433107e-16 0.0000000000000000e+00  -2.9594433678948629e-16 -1.8663944589363188e-15 0.0000000000000000e+00  1.3932351047004699e-15 6.4348579562330207e-16 0.0000000000000000e+00  1.5601267186815391e-15 -6.1684135138543079e-16 0.0000000000000000e+00  2.1521048437849877e-15 7.5251628921539690e-16 0.0000000000000000e+00  -1.7580565638826082e-15 -7.3952824878633299e-16 0.0000000000000000e+00  -8.4832588379421957e-16 -3.2851052406944941e-16 0.0000000000000000e+00  4.7388698469829723e-16 3.2693015212218758e-16 0.0000000000000000e+00  6.1251692251982625e-16 -1.1790041425234223e-15 0.0000000000000000e+00  -1.7628924976443551e-15 1.7800242775333626e-15 0.0000000000000000e+00  3.0745098760707619e-15 2.5369837521312846e-15 0.0000000000000000e+00  -1.1700368323811368e-15 4.2908320868135153e-16 0.0000000000000000e+00  1.2331482428329463e-15 1.7373710655676320e-15 0.0000000000000000e+00  -5.8307689996402801e-16 -1.0442175874106454e-15 0.0000000000000000e+00  -1.3942954719740911e-15 1.3742176426073984e-15 0.0000000000000000e+00  1.5776147816800180e-16 1.1611001092685386e-15 0.0000000000000000e+00  -1.5684329409358277e-15 -1.1767182892703838e-15 0.0000000000000000e+00  -3.9178223451927035e-16 1.4491907961063956e-15 0.0000000000000000e+00  1.1316935171672330e-15 -2.8737800879887911e-15 0.0000000000000000e+00  3.8677480909774733e-16 9.5588244121984561e-16 0.0000000000000000e+00  2.1040160379927818e-15 2.7157442553302198e-15 0.0000000000000000e+00  -3.4057617118707518e-16 -8.4520964875694005e-16 0.0000000000000000e+00  -6.2717012424685356e-16 7.3689947156337322e-16 0.0000000000000000e+00  6.6957900442747849e-16 -3.3007196297033124e-15 0.0000000000000000e+00  1.1169616873649221e-16 -1.0360015453676961e-15 0.0000000000000000e+00  -1.6530196726615475e-15 -3.4159020608105303e-15 0.0000000000000000e+00  -1.2270320247116918e-15 1.1508899024218417e-15 0.0000000000000000e+00  -1.5664804395392738e-15 2.6372965585465998e-15 0.0000000000000000e+00  -1.3785984382203843e-15 1.6724344235045071e-15 0.0000000000000000e+00  1.7768292101640715e-15 6.7819756792378693e-16 0.0000000000000000e+00  4.6475521499133886e-16 -1.2069768932976984e-15 0.0000000000000000e+00  -2.3660840354261908e-15 1.9284952634938959e-15 0.0000000000000000e+00  -7.9968205570930234e-16 -1.7846350942104124e-15 0.0000000000000000e+00  -1.6920133258323572e-15 1.7357325949199916e-15 0.0000000000000000e+00  1.2932877873923914e-15 -1.5252919895325881e-15 0.0000000000000000e+00  -3.1114807168448293e-16 -1.4057182303141386e-15 0.0000000000000000e+00  -1.7455246082561705e-15 -1.3386146268572760e-15 0.0000000000000000e+00  1.9216456481112946e-15 -1.6771291439510637e-16 0.0000000000000000e+00  1.7216406013822052e-15 2.5749594159033563e-16 0.0000000000000000e+00  -1.2715462004151114e-15 -2.1051355568389406e-16 0.0000000000000000e+00  -4.4875258391134175e-16 9.0689663060442603e-16 0.0000000000000000e+00  -7.2423964840347507e-16 -2.3183377850913258e-15 0.0000000000000000e+00  1.1167035359934801e-15 -1.6808872259730866e-15 0.0000000000000000e+00  4.1686290303957021e-16 1.9493295835403357e-15 0.0000000000000000e+00  1.1480356962310514e-15 -1.3775631286827542e-15 0.0000000000000000e+00  9.6713422635739713e-16 1.1986717433269255e-15 0.0000000000000000e+00  2.7132062260031054e-16 -2.3111387932333521e-15 0.0000000000000000e+00  -1.9513872810357085e-16 1.4379655999260930e-15 0.0000000000000000e+00  -1.1341607415697462e-15 1.0781246139671507e-15 0.0000000000000000e+00  1.7432018264100960e-15 1.4615471400808472e-15 0.0000000000000000e+00  1.3355449041511150e-15 1.8093280517993765e-15 0.0000000000000000e+00  -1.0841494225911820e-15 6.6721832679709518e-16 0.0000000000000000e+00  -3.0006290867905005e-16 1.7006942197050276e-15 0.0000000000000000e+00  -1.7437758630286692e-15 1.1896048637254064e-15 0.0000000000000000e+00  -1.9338432713588027e-15 -1.7438486849294638e-15 0.0000000000000000e+00  -9.6696403599877216e-16 1.5105762872958419e-15 0.0000000000000000e+00  1.3269761092619408e-15 3.1769837466467018e-16 0.0000000000000000e+00  -1.6410101288915932e-15 -3.4778717960040876e-16 0.0000000000000000e+00  2.5119726516881817e-15 -1.7079990588882367e-15 0.0000000000000000e+00  -9.9817794405517376e-16 -1.8069340426524624e-15 0.0000000000000000e+00  1.7863660339859344e-17 -5.8656204710914736e-16 0.0000000000000000e+00  1.3100113904749991e-16 5.7351026239780916e-16 0.0000000000000000e+00  1.9793380222150136e-15 6.3106809492660307e-16 0.0000000000000000e+00  1.6785364073850096e-15 -1.3211487680266714e-15 0.0000000000000000e+00  1.5856738612916957e-15 3.3160469860532798e-18 0.0000000000000000e+00  -1.1255904522559122e-15 -1.3268885690994680e-17 0.0000000000000000e+00  2.8203399359469828e-16 2.6769313132929363e-16 0.0000000000000000e+00  -4.1782992551563370e-16 -3.6076662668372959e-16 0.0000000000000000e+00  8.3459224908900056e-16 -1.5676739578908618e-15 0.0000000000000000e+00  -6.8758339367264726e-16 7.8912411370211549e-16 0.0000000000000000e+00  2.4721458791958451e-16 -2.6736263443346048e-15 0.0000000000000000e+00  2.9898903521988588e-16 -1.6049643942425930e-16 0.0000000000000000e+00  -1.3270151191660267e-16 1.8304911511213308e-16 0.0000000000000000e+00  2.3189222300251436e-15 -2.6864188017635406e-15 0.0000000000000000e+00  -6.2851456864683977e-17 1.7878136272297089e-15 0.0000000000000000e+00  2.1548742172623465e-15 -1.3474088835629525e-15 0.0000000000000000e+00  1.9971682879650295e-15 -1.1624786075689502e-15 0.0000000000000000e+00  -3.1210934740941954e-15 8.7081805386867700e-16 0.0000000000000000e+00  -1.5962186617201246e-15 -1.4320905554458702e-15 0.0000000000000000e+00  1.1096295388415827e-15 -1.0052343239629344e-15 0.0000000000000000e+00  -2.871