<?xml version="1.0"?>
<VTKFile type="UnstructuredGrid"  version="0.1"  >
<UnstructuredGrid>
<Piece  NumberOfPoints="12837" NumberOfCells="25160">
<Points>
<DataArray  type="Float64"  NumberOfComponents="3"  format="ascii">-0.4874639560909119 0.111260466978157 0  -0.5 0 0  -0.4874639560909118 -0.1112604669781572 0  -0.4504844339512096 -0.2169418695587791 0  -0.3909157412340149 -0.3117449009293667 0  -0.3117449009293668 -0.3909157412340149 0  -0.2169418695587791 -0.4504844339512096 0  -0.1112604669781572 -0.4874639560909118 0  -3.061616997868383e-17 -0.5 0  0.1112604669781572 -0.4874639560909118 0  0.216941869558779 -0.4504844339512096 0  0.3117449009293667 -0.390915741234015 0  0.3909157412340147 -0.311744900929367 0  0.4504844339512095 -0.2169418695587791 0  0.4874639560909119 -0.111260466978157 0  0.5 0 0  0.4874639560909118 0.1112604669781572 0  0.4504844339512096 0.2169418695587791 0  0.3909157412340149 0.3117449009293667 0  0.3117449009293668 0.3909157412340149 0  0.2169418695587791 0.4504844339512096 0  0.1112604669781572 0.4874639560909118 0  3.061616997868383e-17 0.5 0  -0.1112604669781572 0.4874639560909118 0  -0.216941869558779 0.4504844339512096 0  -0.3117449009293667 0.390915741234015 0  -0.3909157412340147 0.311744900929367 0  -0.4504844339512095 0.2169418695587791 0  -1.1 1.1 0  -1.1 0 0  1.1 0 0  1.1 1.1 0  -1.1 -1.1 0  1.1 -1.1 0  0 -1.1 0  0 1.1 0  -1.1 -0.55 0  0.55 -1.1 0  1.1 -0.55 0  1.1 0.55 0  -1.1 0.55 0  -0.55 -1.1 0  -0.55 1.1 0  0.55 1.1 0  5.551115123125783e-17 1.665334536937735e-16 0  0.6663398863122794 0.6663398863122791 0  -0.6663398863122794 -0.6663398863122794 0  -0.6663398863122793 0.6663398863122795 0  0.6663398863122793 -0.6663398863122795 0  0.2883385204096159 -0.8240241488192156 0  -0.8 0 0  0.8 0 0  -0.2883385204096159 0.8240241488192156 0  0.2883385204096159 0.8240241488192156 0  -0.275 -1.1 0  -0.8137296345339549 0.3493292902542065 0  0.7691968053435165 -0.3403965171534225 0  -0.7691968053435165 -0.3403965171534224 0  0.8137296345339551 0.3493292902542064 0  -0.2705017153269808 -0.773049488531049 0  1.1 0.8250000000000001 0  0.8250000000000001 1.1 0  1.1 -0.8250000000000001 0  0.8250000000000001 -1.1 0  -1.1 0.8250000000000001 0  -0.8250000000000001 1.1 0  -0.8250000000000001 -1.1 0  -1.1 -0.8250000000000001 0  0 0.8113845792931161 0  0.007072477527379288 -0.8187738769332888 0  1.1 0.275 0  1.1 -0.275 0  -1.1 0.275 0  -0.275 1.1 0  0.275 -1.1 0  0.275 1.1 0  -1.1 -0.275 0  0.02816823497502773 -0.2499999999999999 0  -0.2374639560909118 -0.08309223200312943 0  0.25 -0.02816823497502778 0  -0.1778952633737171 0.1778952633737173 0  0.08309223200312948 0.2374639560909119 0  0.6875 0.9044521628094033 0  -0.9044521628094033 0.6875 0  0.8463389105089401 -0.8463389105089401 0  0.9044521628094033 0.6875 0  -0.8463389105089401 -0.8463389105089401 0  -0.767786457710924 0.8750783326923629 0  0.8677516869574191 -0.5506979707488757 0  -0.8677516869574192 -0.5506979707488756 0  -0.5050311643355169 -0.8555004540247985 0  -0.5701556468586396 -0.4567865287721606 0  0.6249950965330108 -0.8876837002882089 0  0.5701556468586395 -0.4567865287721607 0  0.3928657626645344 -0.6124864144470425 0  -0.592653592010189 0.4393117263502035 0  -0.4179614947106146 0.6138426574647371 0  -0.5292344651737774 0.8619935788915527 0  0.5926535920101891 0.4393117263502033 0  0.4248107255337702 0.6192605333809361 0  -0.4469834162493513 -0.6401729300299475 0  0.9006739696166555 0.9006739696166555 0  0.4798018989697899 0.9045243416864952 0  -0.9096531673941256 -0.1815147264791358 0  -0.9500000000000001 0 0  0.9500000000000001 0 0  0.6521320428699586 0.2281908711319545 0  -0.687773594604006 0.1793452688508528 0  0.1381474836556521 0.9550753510059677 0  -0.1375 0.9556922896465581 0  -0.1375 -0.9558400573365238 0  -0.6783448506972298 -0.9500094123501752 0  -0.9625000000000001 1.1 0  -1.1 0.9625000000000001 0  0.1452038542000676 -0.9554164009279873 0  0.875 -0.178378888693158 0  0.6793503582950227 -0.1556839898321528 0  0.1503116767474856 -0.6817816126977135 0  -0.1501232052114358 0.6818807752649215 0  0.224843964788616 0.6425671340716849 0  0.4403992229191585 -0.9418832717201049 0  -0.9255923214149538 0.1917223701372979 0  0.925592321414954 0.1917223701372979 0  -0.1654674019212394 -0.2633398615884157 0  0.2633398615884157 0.1654674019212394 0  0.2199174206378054 -0.2199174206378056 0  -0.6321077388721966 -0.2211840641163827 0  0.9496930499643419 -0.3840533576546167 0  -1.1 -0.4125 0  0.4892209988974057 -0.7667099924779079 0  -0.9622729494512566 -0.7061399025375782 0  1.1 -0.6875 0  -0.9625000000000001 -1.1 0  1.1 -0.9625000000000001 0  -0.07449011661556058 -0.6611180704222235 0  0.9201558410236723 0.5020324872420169 0  -0.7980259563196859 0.5347968030121897 0  -1.1 0.4125 0  -0.4125 1.1 0  -0.9404822608825543 0.89375 0  -0.9310348978548471 -0.392797243827761 0  -0.3451385467768902 -0.9355288124011237 0  0.7480397761709329 0.5143504158157237 0  -0.2824862267198052 -0.605330377080244 0  -0.9520915579684144 0.48125 0  0.5940338165669689 -0.295094959178099 0  -0.3171400979238754 0.07238515781857774 0  -0.07238515781857757 0.3171400979238754 0  -0.6875 1.1 0  0.7232332684232805 -0.4901806172551281 0  -0.7232332684232805 -0.4901806172551281 0  0.00338813553846288 0.655692289646558 0  -0.08845398977724174 -0.1280756351071957 0  0.11473577351878 -0.1051816471190254 0  0.1280756351071958 0.08845398977724203 0  -1.1 -0.9625000000000001 0  0.9625000000000001 -1.1 0  0.7921297170957761 0.7921297170957761 0  -0.3437500000000001 0.9650125732259328 0  0.5836124443421735 0.7936878997714175 0  0.65 0 0  -0.65 0 0  0.9664883964774059 -0.7562500000000001 0  -0.8124211746991734 -0.700257622122046 0  0.8170566656840113 -0.6956221311372082 0  0.963312045727999 0.3369953739214661 0  0.754216364371443 -0.9663173195149415 0  -0.9646845642933237 0.3341209191946947 0  0.4248945845939051 0.7671766797892229 0  0.1444746423966985 0.8107378728962151 0  1.1 -0.1375 0  -0.61875 0.9740926301799909 0  -0.4436314992969004 0.4648441946571232 0  0.446749005251518 0.4467490052515179 0  -0.6425762581319699 -0.809434358471983 0  -0.4237102526659775 -0.4914836457392125 0  0.3417556154465088 0.9649161802301053 0  1.1 0.9625000000000001 0  0.9625000000000001 1.1 0  -0.1346972861082186 -0.8140182440632158 0  0.004599123315319175 -0.9594136686545218 0  -0.7630020842896895 -0.1462286046077213 0  0.8937500000000002 -0.9780554058317621 0  -0.89375 -0.978055405831762 0  0.5307580899412138 -0.6335465795469118 0  -0.6735650381412928 0.3215315700647676 0  -0.2926124573178824 0.6815987298140569 0  0.2832002730267919 -0.9620860716296038 0  0.7808089105174282 0.1495688930967883 0  0.0003385874080656659 0.962016808709899 0  0.1396097490202794 -0.3341837278978841 0  -0.06174656588772961 -0.356871135866022 0  0.356871135866022 0.06174656588772962 0  0.3502422169756049 -0.1225550522669033 0  -0.3141898486624634 -0.1974185664662481 0  0.2104723163774097 0.2947389523832234 0  0.6875 -1.1 0  -0.4125 -1.1 0  1.1 -0.4125 0  1.1 0.1375 0  -1.1 0.1375 0  0.1375 -1.1 0  -0.6875 -1.1 0  -0.1375 -1.1 0  -0.1375 1.1 0  0.4125 -1.1 0  0.1375 1.1 0  -1.1 -0.1375 0  1.1 0.6875 0  -1.1 0.6875 0  0.6875 1.1 0  -1.1 -0.6875 0  1.1 0.4125 0  0.4125 1.1 0  -0.151176608331977 0.8191260725180923 0  0.1515495044630543 -0.8186697855688289 0  -0.526486564518479 0.7142024298560653 0  -0.5573848506159964 0.5762310871691408 0  0.720331182364698 -0.7909582169688955 0  0.9819791638121483 -0.622318971622832 0  -0.5246985929339253 -0.3296899772059645 0  0.3145426809485556 0.5426731239273453 0  -0.1846255388341355 0.04213957444465674 0  -0.0421395744446566 0.1846255388341357 0  0.4281875356850639 -0.4739192884886087 0  -0.4751434546088947 0.9830941382835867 0  -0.5218871269896868 0.327923416068668 0  0.5218871269896868 0.3279234160686678 0  -0.4014303854325054 0.7561410010683971 0  -0.4679926397922863 -0.9812422187131735 0  -0.3026615653521558 0.55036344815324 0  -0.5397081829995244 -0.7306642780966139 0  0.9911032692061623 -0.8937500000000002 0  -0.9763871746165429 -0.8739193086721466 0  0.254260682847422 -0.5864806602798783 0  -0.3643001290028616 -0.08087986416259899 0  -0.2060073154462889 0.3087931799966986 0  -0.3087931799966984 0.2060073154462891 0  0.05162583822629099 0.3675962661090195 0  -0.3863870983940469 -0.818198469145103 0  -0.7178509105469472 0.438636590802872 0  0.5248650937143274 0.544333731959085 0  0.5394102004945671 0.6744287826185811 0  0.9736442263428986 -0.2589551576123615 0  -0.6466016324836857 -0.3429461438153842 0  0.9882826862706525 -0.5001445473219641 0  -0.5692973074531109 0.1992057435931062 0  0.2679332586338489 -0.7057353379713655 0  0.97472163659182 0.7953658887002701 0  0.7953658887002701 0.97472163659182 0  -0.9858395265700997 0.7795544025957204 0  0.61875 1.002226081404702 0  -1.002226081404702 0.61875 0  1.002226081404702 0.61875 0  -0.7872795491246395 0.6557248622438615 0  0.7891733379062652 0.6344142792927272 0  -0.65214580987448 0.8022588499898194 0  -0.7374080037760796 0.9910247317792732 0  0.6858107639797646 0.3516178482725742 0  -0.8046606458159516 0.2243913597168291 0  -0.89375 1.00303902010377 0  0.04286108681466963 -0.6175947077223141 0  0.3212593971299798 0.7106672754906794 0  -0.6724373947869903 0.5480412062922982 0  0.6060749141796563 -0.7664549984213634 0  0.828899546032142 -0.4406615706566396 0  -0.9839844221761632 -0.5864783208180512 0  -0.8194224057691728 0.7691241460452193 0  0.6634571383747863 -0.387956122136344 0  0.6201350802686155 -0.56069693733135 0  -0.6285070347487245 -0.5568542402547564 0  0.4882373739369446 -0.3747481136125761 0  0.3811057632069687 -0.727045806314891 0  -0.8278834699170806 -0.4430880104260875 0  -0.875 0.08786676842428248 0  0.9801792185070523 -0.1176453979923067 0  -0.763389314798812 -0.5971032269598143 0  0.6706650544504121 0.1139123170284505 0  -0.2356231320439919 -0.8874537102254196 0  0.7577073913635143 -0.5985815095441068 0  0.8772193009776941 0.08814930188612236 0  -0.1918772948459984 -0.6831435764250359 0  0.63831026039397
[...]
<PointData  Vectors="f_112"> 
<DataArray  type="Float64"  Name="f_112"  NumberOfComponents="3" format="ascii">2.1037286950158293e-01 -4.8016234652466773e-02 0.0000000000000000e+00  2.2222222222222140e-01 1.5873034394743821e-18 0.0000000000000000e+00  2.1037286950158238e-01 4.8016234652466773e-02 0.0000000000000000e+00  1.7572508302513051e-01 8.4624739872748503e-02 0.0000000000000000e+00  1.2118812872731846e-01 9.6644307708491764e-02 0.0000000000000000e+00  5.2691930173908816e-02 6.6073590552974279e-02 0.0000000000000000e+00  -1.6926618841117121e-02 -3.5148486195203603e-02 0.0000000000000000e+00  -5.3902813580131333e-02 -2.3616365692011915e-01 0.0000000000000000e+00  -2.3530638880879176e-17 -4.0000000000000085e-01 0.0000000000000000e+00  5.3902813580131229e-02 -2.3616365692011856e-01 0.0000000000000000e+00  1.6926618841116865e-02 -3.5148486195203964e-02 0.0000000000000000e+00  -5.2691930173908962e-02 6.6073590552974890e-02 0.0000000000000000e+00  -1.2118812872731831e-01 9.6644307708491792e-02 0.0000000000000000e+00  -1.7572508302512940e-01 8.4624739872748142e-02 0.0000000000000000e+00  -2.1037286950158263e-01 4.8016234652466676e-02 0.0000000000000000e+00  -2.2222222222222215e-01 0.0000000000000000e+00 0.0000000000000000e+00  -2.1037286950158288e-01 -4.8016234652466620e-02 0.0000000000000000e+00  -1.7572508302513032e-01 -8.4624739872748433e-02 0.0000000000000000e+00  -1.2118812872731849e-01 -9.6644307708491500e-02 0.0000000000000000e+00  -5.2691930173908316e-02 -6.6073590552973904e-02 0.0000000000000000e+00  1.6926618841117052e-02 3.5148486195203402e-02 0.0000000000000000e+00  5.3902813580131263e-02 2.3616365692011884e-01 0.0000000000000000e+00  3.4041285066321672e-17 4.0000000000000080e-01 0.0000000000000000e+00  -5.3902813580131277e-02 2.3616365692011906e-01 0.0000000000000000e+00  -1.6926618841117118e-02 3.5148486195203818e-02 0.0000000000000000e+00  5.2691930173908719e-02 -6.6073590552973724e-02 0.0000000000000000e+00  1.2118812872731841e-01 -9.6644307708491667e-02 0.0000000000000000e+00  1.7572508302513051e-01 -8.4624739872748656e-02 0.0000000000000000e+00  -1.3903102088751315e-15 1.5748554187391760e-15 0.0000000000000000e+00  -1.9653006512126146e-15 3.6259963629876065e-18 0.0000000000000000e+00  1.6832389202473366e-15 2.3220938167091470e-18 0.0000000000000000e+00  1.8261800946412131e-15 1.7985287663442047e-15 0.0000000000000000e+00  -1.6950978418651029e-15 -1.6702747268105052e-15 0.0000000000000000e+00  2.2304414837031771e-15 -1.6327605383067665e-15 0.0000000000000000e+00  1.3269365870442646e-18 -1.7756059834372725e-15 0.0000000000000000e+00  -1.7170327074335178e-18 2.0946269292811363e-15 0.0000000000000000e+00  -1.8400695115007128e-15 -8.1913135949009600e-16 0.0000000000000000e+00  6.7658485873524254e-16 -1.2701474426367189e-15 0.0000000000000000e+00  1.6597188621687412e-15 -7.3282268503641575e-16 0.0000000000000000e+00  2.6294151122739844e-15 1.3162472733223545e-15 0.0000000000000000e+00  -1.9102700198864081e-15 8.6511996490213140e-16 0.0000000000000000e+00  -9.3960981105422319e-16 -1.6055717552195014e-15 0.0000000000000000e+00  -7.1781422147182567e-16 1.2989391431509624e-15 0.0000000000000000e+00  6.9607198009243628e-16 1.4087438217849463e-15 0.0000000000000000e+00  -2.9145940314273295e-06 1.9212119648480517e-05 0.0000000000000000e+00  -3.1480760856294858e-02 -1.3806117521606880e-03 0.0000000000000000e+00  3.1473181364723504e-02 1.3816122627503878e-03 0.0000000000000000e+00  3.1463629665238760e-02 -1.3695758763201287e-03 0.0000000000000000e+00  -3.1476009667714099e-02 1.3757582901487032e-03 0.0000000000000000e+00  -7.5194503372622741e-03 -3.6596174254290723e-02 0.0000000000000000e+00  1.7777777777777701e-01 4.6250155759947333e-18 0.0000000000000000e+00  -1.7777777777777690e-01 8.1875806624493733e-18 0.0000000000000000e+00  7.5249764323460184e-03 3.6580231695221101e-02 0.0000000000000000e+00  -7.5285876289380846e-03 3.6587606720811565e-02 0.0000000000000000e+00  -4.2412158450487479e-16 -1.6760720476316594e-15 0.0000000000000000e+00  6.8152944942531629e-02 -1.1019078875989276e-02 0.0000000000000000e+00  -7.8311741218979047e-02 1.3929642911601528e-02 0.0000000000000000e+00  7.8325814485704776e-02 1.3934691986246667e-02 0.0000000000000000e+00  -6.8168387659770457e-02 -1.1018412577619780e-02 0.0000000000000000e+00  7.7321665226247364e-03 -4.6147949991368897e-02 0.0000000000000000e+00  1.1915341551767097e-15 1.9927693733673020e-15 0.0000000000000000e+00  1.0961446376840762e-15 1.6403433046885886e-15 0.0000000000000000e+00  2.3488372121464738e-15 -1.2344305086037489e-15 0.0000000000000000e+00  9.3223218868257839e-16 -1.1848976160796654e-15 0.0000000000000000e+00  -1.1683591895623179e-15 6.6853727374862148e-16 0.0000000000000000e+00  -1.5662922168400836e-15 1.8477723387635757e-15 0.0000000000000000e+00  -1.3999856327432264e-15 -1.8168145103617472e-15 0.0000000000000000e+00  -1.5638800036655815e-15 -1.0616658077412937e-15 0.0000000000000000e+00  -6.3297833722682140e-06 7.3979135231486817e-02 0.0000000000000000e+00  -6.5096100637910347e-05 -7.1331665326717905e-02 0.0000000000000000e+00  1.9806244235861177e-15 4.7607301994691352e-16 0.0000000000000000e+00  2.1877116134181397e-15 -4.1593431723995387e-16 0.0000000000000000e+00  -1.8087927369846453e-15 3.2001586772062988e-16 0.0000000000000000e+00  -2.4598983446624775e-16 1.6558116297821767e-15 0.0000000000000000e+00  5.2278008527996375e-16 -2.4279211640257560e-15 0.0000000000000000e+00  2.9812005555569176e-16 1.9137744390354147e-15 0.0000000000000000e+00  -1.6508516917536712e-15 -3.0187361078165634e-16 0.0000000000000000e+00  -5.5843460069395119e-03 -6.6931276740429840e-02 0.0000000000000000e+00  8.4293368895310666e-02 2.7430661840628237e-03 0.0000000000000000e+00  -9.1718739814293460e-02 1.5747188799291659e-03 0.0000000000000000e+00  5.3084342150280905e-02 1.3127496691196217e-02 0.0000000000000000e+00  -1.8457587145685191e-02 5.2648804195951082e-02 0.0000000000000000e+00  -1.0796100772874581e-02 2.4746009045785527e-03 0.0000000000000000e+00  1.6869398139827522e-02 -1.7036813191071275e-03 0.0000000000000000e+00  -1.0961991363877077e-02 -1.1675564332113455e-04 0.0000000000000000e+00  -1.6876240694707601e-02 -1.7066397395824721e-03 0.0000000000000000e+00  1.0962791364508086e-02 -1.1549080935501724e-04 0.0000000000000000e+00  1.1460335418498412e-02 1.0437308317669119e-03 0.0000000000000000e+00  -3.1162374232185226e-02 4.7209326508518192e-03 0.0000000000000000e+00  3.1165235590548065e-02 4.7276120742439616e-03 0.0000000000000000e+00  1.3320692999377689e-02 -1.0627336159791795e-02 0.0000000000000000e+00  6.9912041919488757e-02 2.0834557680220460e-02 0.0000000000000000e+00  -1.2176551534307615e-02 -4.2812299960943842e-03 0.0000000000000000e+00  -6.9871558972957742e-02 2.0815292821391496e-02 0.0000000000000000e+00  -2.7183191650791250e-02 -1.7467739424074830e-02 0.0000000000000000e+00  7.3828527366648508e-02 -2.1697265364101870e-02 0.0000000000000000e+00  2.9858124492869662e-02 1.2892556542391815e-02 0.0000000000000000e+00  1.3288272917592641e-02 8.9496302872563611e-03 0.0000000000000000e+00  -7.3846402858066415e-02 -2.1701608436574472e-02 0.0000000000000000e+00  -2.9895639689872147e-02 1.2467660291736281e-02 0.0000000000000000e+00  2.9383046093125181e-02 -1.1392331943646130e-02 0.0000000000000000e+00  -6.7843527324843540e-03 9.8898306213866371e-05 0.0000000000000000e+00  -9.8766516445516345e-03 1.0754935253596947e-02 0.0000000000000000e+00  7.6100149822018487e-02 5.1931598210565926e-03 0.0000000000000000e+00  1.0555555555555458e-01 -4.6222550064939392e-18 0.0000000000000000e+00  -1.0555555555555482e-01 -2.1025297644488945e-18 0.0000000000000000e+00  -1.3078885751729141e-01 -2.5873416520755300e-02 0.0000000000000000e+00  1.3968232117474072e-01 -1.9039272976460568e-02 0.0000000000000000e+00  -1.5701284384137450e-03 2.8823873361705634e-02 0.0000000000000000e+00  1.5504272941301534e-03 2.8723293806020313e-02 0.0000000000000000e+00  1.5531069853346963e-03 -2.8692643308100740e-02 0.0000000000000000e+00  8.1038453166516859e-03 -2.3407973343482825e-03 0.0000000000000000e+00  -1.4440365618232693e-15 2.2216907381859503e-15 0.0000000000000000e+00  -1.6547965287753988e-15 1.7695306031439279e-15 0.0000000000000000e+00  -1.6634047244776492e-03 -2.8374572173429490e-02 0.0000000000000000e+00  -8.8763726881747759e-02 6.4307167295583594e-03 0.0000000000000000e+00  -1.4958043353213071e-01 1.8273005701833156e-02 0.0000000000000000e+00  8.1137227468897934e-04 -1.0038783332651637e-01 0.0000000000000000e+00  -8.3540948817157083e-04 1.0048702062737822e-01 0.0000000000000000e+00  -3.2038929616428134e-03 7.7066694053223694e-02 0.0000000000000000e+00  -7.2579604096088641e-03 -1.1142354957952806e-02 0.0000000000000000e+00  6.8418696878138993e-02 -4.8109667754068601e-03 0.0000000000000000e+00  -6.8392500720963922e-02 -4.8169665453065271e-03 0.0000000000000000e+00  3.6387388707497657e-02 -3.3452168394029279e-02 0.0000000000000000e+00  -8.7840916408523650e-02 -1.1201638866413465e-02 0.0000000000000000e+00  -6.2382241403540054e-02 -3.6424079982469589e-03 0.0000000000000000e+00  1.3690033115012376e-01 2.8667195588642221e-02 0.0000000000000000e+00  -3.4773388267594858e-02 4.7118488582227691e-03 0.0000000000000000e+00  -2.0249446085870350e-15 -4.6748078672630742e-16 0.0000000000000000e+00  -1.9373191584707218e-02 -1.2530800725579520e-02 0.0000000000000000e+00  1.1426590512746609e-02 1.1203273771222316e-03 0.0000000000000000e+00  1.2214175535790660e-15 -1.1951705383234351e-15 0.0000000000000000e+00  -1.1986047781205660e-15 -2.0538468645225165e-15 0.0000000000000000e+00  1.8821690192545104e-15 -1.5823705642679061e-15 0.0000000000000000e+00  -3.2834125005381499e-03 -1.3753174014539812e-01 0.0000000000000000e+00  -2.8940272210855471e-02 -4.3884779268709966e-03 0.0000000000000000e+00  4.0553725562667647e-02 -6.7109903945376343e-03 0.0000000000000000e+00  -1.8754034860718232e-15 7.8896369783934728e-16 0.0000000000000000e+00  -4.9628355207222134e-16 1.9832890542490609e-15 0.0000000000000000e+00  5.7812715520101886e-03 -2.1837504398132238e-05 0.0000000000000000e+00  3.7842728636146385e-02 5.3215128127292862e-03 0.0000000000000000e+00  5.7682108868580134e-03 -1.7845285230640266e-02 0.0000000000000000e+00  -4.8282967628698811e-02 -8.8235402558639632e-03 0.0000000000000000e+00  1.1091904405135048e-02 -5.1010740708226816e-02 0.0000000000000000e+00  2.5688875352945176e-02 -3.7955045090911355e-03 0.0000000000000000e+00  -1.1760819537014368e-01 3.5120945711894835e-02 0.0000000000000000e+00  1.2061463895982048e-01 -1.1771821528480999e-02 0.0000000000000000e+00  7.2040387776541965e-03 9.6914939294824268e-02 0.0000000000000000e+00  -1.2211231216893094e-15 1.6031836989157997e-15 0.0000000000000000e+00  -5.4501974470501612e-02 1.0840471057082437e-02 0.0000000000000000e+00  5.4514889173275398e-02 1.0842337352574836e-02 0.0000000000000000e+00  2.0585357012515836e-04 1.5356694022869180e-01 0.0000000000000000e+00  2.7201789284558246e-02 -2.0628850067064976e-02 0.0000000000000000e+00  -3.6882490905525346e-02 -1.3748575313302869e-02 0.0000000000000000e+00  -4.2179826962988734e-02 1.0099365023430635e-02 0.0000000000000000e+00  -3.0694236773560394e-15 -1.9660929003150591e-15 0.0000000000000000e+00  1.3045668091003172e-15 -1.4832055310551637e-15 0.0000000000000000e+00  -1.6107164821175822e-02 4.3447682331824776e-05 0.0000000000000000e+00  4.6836516263246454e-03 1.4837257387236758e-02 0.0000000000000000e+00  -1.9040050581796097e-02 5.9776299202543006e-03 0.0000000000000000e+00  -2.1666666666666604e-01 -1.0175177301685722e-18 0.0000000000000000e+00  2.1666666666666548e-01 6.2208359924250805e-18 0.0000000000000000e+00  -9.1797730067943242e-03 6.9793782407749421e-04 0.0000000000000000e+00  2.2089652549928458e-02 1.7109751213088987e-03 0.0000000000000000e+00  -2.2212213547822830e-02 1.8174430025115445e-03 0.0000000000000000e+00  -3.6295961785722315e-02 -4.3898227666187119e-03 0.0000000000000000e+00  -6.5859568975637920e-03 -1.1241614056711879e-03 0.0000000000000000e+00  3.6254143655885335e-02 -4.3426826120231739e-03 0.0000000000000000e+00  -1.6706629091412222e-02 1.9777998862448985e-02 0.0000000000000000e+00  -2.2537857468975676e-03 6.2261695006503512e-02 0.0000000000000000e+00  2.4402734604557158e-15 -2.9688630135575499e-16 0.0000000000000000e+00  6.8485269761155224e-03 3.1992920188860211e-03 0.0000000000000000e+00  6.1362533086945760e-02 -2.3564264837725030e-02 0.0000000000000000e+00  -6.6952861189204640e-02 -2.9170195373875357e-02 0.0000000000000000e+00  1.7837975524326557e-02 -3.5183364644062829e-03 0.0000000000000000e+00  5.1669972444130019e-02 1.4673820754777273e-02 0.0000000000000000e+00  -4.6566956913323670e-03 1.4968188977525146e-02 0.0000000000000000e+00  1.3263701953214230e-15 1.4627307137671444e-15 0.0000000000000000e+00  1.3955882219258528e-15 1.7905485565883534e-15 0.0000000000000000e+00  2.0187351358998918e-03 -6.2757841983286947e-02 0.0000000000000000e+00  -4.4709337526836201e-05 -3.1431482224949368e-02 0.0000000000000000e+00  1.3232231363173985e-01 1.0798746516184543e-02 0.0000000000000000e+00  -4.0969309309828259e-03 -2.0935251705960130e-04 0.0000000000000000e+00  4.0974075073613387e-03 -2.0915389487015593e-04 0.0000000000000000e+00  -3.5053152741308394e-02 -2.1573504415612239e-03 0.0000000000000000e+00  9.8590674768617395e-02 -2.2774015022716233e-02 0.0000000000000000e+00  1.1095534246459626e-02 4.8437604856412582e-02 0.0000000000000000e+00  -3.7473759222702006e-03 -1.8906195093624650e-02 0.0000000000000000e+00  -1.2625058254009661e-01 -9.9139911079113643e-03 0.0000000000000000e+00  -6.4697649340969094e-06 3.0825749898368896e-02 0.0000000000000000e+00  -1.4059049145145724e-02 -7.3215129500442663e-02 0.0000000000000000e+00  3.2862269695662863e-04 -1.3189554793411729e-01 0.0000000000000000e+00  -1.4077275970855394e-01 -1.4022226990566209e-02 0.0000000000000000e+00  -1.3317429604265438e-01 2.6701438222813564e-02 0.0000000000000000e+00  1.0612875508811569e-01 3.0980647967550415e-02 0.0000000000000000e+00  -4.3420064914241600e-02 1.6238603914335858e-02 0.0000000000000000e+00  1.1976757357736406e-15 -2.4970862258664548e-15 0.0000000000000000e+00  -7.3114297909543158e-16 -1.9761227693095512e-15 0.0000000000000000e+00  9.6905130543458564e-16 -7.5422048510498483e-16 0.0000000000000000e+00  2.3160453128277815e-15 2.9317959385097867e-16 0.0000000000000000e+00  -1.6994062620448945e-15 3.7641548307016247e-16 0.0000000000000000e+00  1.5257942582759448e-16 -1.0868040592931914e-15 0.0000000000000000e+00  -8.8921801185220601e-16 -1.9925474023149061e-15 0.0000000000000000e+00  -9.0010922881936327e-17 -2.4675399460094803e-15 0.0000000000000000e+00  -1.7198825089062387e-16 1.8170932594096350e-15 0.0000000000000000e+00  -2.2055197022398822e-16 -3.3671752929555692e-15 0.0000000000000000e+00  2.1187576270038850e-16 1.3381419118741254e-15 0.0000000000000000e+00  -2.3830127971695382e-15 -3.0293501694087290e-16 0.0000000000000000e+00  1.8788592977579229e-15 8.1320279254918160e-16 0.0000000000000000e+00  -1.6948728399815205e-15 9.5090594408390534e-16 0.0000000000000000e+00  1.1194466547782381e-15 2.5692074793006806e-15 0.0000000000000000e+00  -1.6205975954271688e-15 -1.1628949621134135e-15 0.0000000000000000e+00  1.1930705112976712e-15 7.4682913886699478e-16 0.0000000000000000e+00  6.6327653562671709e-16 3.1345214026665925e-15 0.0000000000000000e+00  2.4601096820889641e-03 5.9093309993577370e-02 0.0000000000000000e+00  -2.4706487967610510e-03 -5.9160045119900057e-02 0.0000000000000000e+00  2.5363353222381955e-02 7.7690233591532019e-03 0.0000000000000000e+00  4.4633231803267448e-02 -5.1263433648001903e-03 0.0000000000000000e+00  -1.8255230809759194e-02 -1.1032092673737854e-03 0.0000000000000000e+00  -1.3224803476841502e-02 1.6895939230419375e-03 0.0000000000000000e+00  1.1162928468872607e-01 4.6103661682892483e-02 0.0000000000000000e+00  -2.0561866431546172e-02 2.5572941246339954e-02 0.0000000000000000e+00  6.4631473444724766e-02 1.7541750073157337e-03 0.0000000000000000e+00  1.1213605995961188e-02 3.9728422925860797e-02 0.0000000000000000e+00  -5.6752833142678025e-02 2.0435705211410405e-02 0.0000000000000000e+00  5.6317918523349410e-03 7.1063793503792251e-03 0.0000000000000000e+00  1.1247267900531972e-01 -4.6976632696512505e-02 0.0000000000000000e+00  -1.1247239993924585e-01 -4.7006170144374082e-02 0.0000000000000000e+00  1.6195465284020182e-02 2.3190672329995728e-02 0.0000000000000000e+00  5.6630656031871488e-03 -7.4666727865888771e-03 0.0000000000000000e+00  1.7137557812832174e-02 3.2621741647745457e-02 0.0000000000000000e+00  2.4077597815455175e-02 -7.3570213018795362e-03 0.0000000000000000e+00  -4.0369399175836920e-03 6.7978004954455905e-05 0.0000000000000000e+00  5.0615005779082838e-03 1.1378104202129072e-04 0.0000000000000000e+00  -5.8306622975166748e-03 -6.3036544901877406e-02 0.0000000000000000e+00  1.4355048657748712e-01 1.9474287795923924e-02 0.0000000000000000e+00  3.8216016315571436e-02 2.1354793367517829e-02 0.0000000000000000e+00  1.0216196813662876e-01 -3.0255811304484799e-02 0.0000000000000000e+00  1.4487599616403004e-03 1.4585769709701682e-01 0.0000000000000000e+00  1.1980123831837273e-02 -2.3213741437568224e-02 0.0000000000000000e+00  6.4769567372051459e-02 -1.3846857635414100e-02 0.0000000000000000e+00  -4.9393248568271680e-02 -8.1874924089534659e-03 0.0000000000000000e+00  -3.0123591903404179e-02 4.6620857658607453e-03 0.0000000000000000e+00  -4.1949610499808207e-02 3.8556685028701015e-03 0.0000000000000000e+00  9.6096872643747513e-02 2.5008882853504538e-02 0.0000000000000000e+00  -1.8531244379027874e-02 2.6735638588925160e-03 0.0000000000000000e+00  1.5658090058127511e-01 -3.9743773690782018e-02 0.0000000000000000e+00  -8.4128713554151857e-03 -5.4334877374591230e-02 0.0000000000000000e+00  -7.3685877747411014e-03 -4.3202925265551918e-04 0.0000000000000000e+00  -5.6931050228096122e-03 7.1818648686530328e-04 0.0000000000000000e+00  7.2048288294198730e-03 -4.8707567148750086e-04 0.0000000000000000e+00  -5.2594945195799719e-03 2.5646880590976463e-03 0.0000000000000000e+00  1.1151877082393588e-02 -1.4326232383842165e-03 0.0000000000000000e+00  -1.1139444523601414e-02 -1.4306226355460523e-03 0.0000000000000000e+00  2.7572286369497347e-02 -2.8278112603219107e-03 0.0000000000000000e+00  -2.9606156331237549e-02 -3.4687618767983261e-03 0.0000000000000000e+00  1.8346429491900476e-02 3.1093370941686314e-03 0.0000000000000000e+00  5.4425893713127447e-03 1.1314030492443131e-03 0.0000000000000000e+00  -8.8730774507874449e-02 -2.0440847346490841e-02 0.0000000000000000e+00  9.8180463985022920e-02 -1.1094466759782056e-02 0.0000000000000000e+00  3.2272993318242463e-03 1.9175809334091200e-04 0.0000000000000000e+00  4.6840232186472174e-03 -1.7972800465178873e-01 0.0000000000000000e+00  -1.2933885115427380e-02 3.9594878181700786e-02 0.0000000000000000e+00  4.7949373242618006e-02 -8.4837284026283190e-03 0.0000000000000000e+00  -2.1532830480167738e-02 -4.3635963658506484e-03 0.0000000000000000e+00  -4.9953183139745824e-02 8.5482798418498977e-03 0.0000000000000000e+00  1.4639207894146654e-02 1.9930223190924067e-03 0.0000000000000000e+00  1.6611224199029218e-02 -4.9890474177517784e-04 0.0000000000000000e+00  -8.2023665099439258e-02 2.0603863666397670e-02 0.0000000000000000e+00  -4.7450591151005576e-02 7.7604758129413724e-03 0.0000000000000000e+00  4.7955380359035751e-02 8.1216034904808328e-03 0.0000000000000000e+00  -9.4909019112147899e-02 4.4943176232141946e-02 0.0000000000000000e+00  -1.6757369968698730e-02 -2.6732165752118044e-02 0.0000000000000000e+00  4.9740739731366578e-02 8.5322742136641691e-03 0.0000000000000000e+00  1.1363921312225937e-01 -3.5801395683489746e-03 0.0000000000000000e+00  -5.9721611559283239e-02 2.1217709081197268e-03 0.0000000000000000e+00  3.5555864769532902e-02 4.9444297558556560e-03 0.0000000000000000e+00  -1.6636269625631397e-01 -1.5160263341220207e-02 0.0000000000000000e+00  4.3672653996301644e-03 -3.4210326470946607e-02 0.0000000000000000e+00  -3.5765429875422264e-02 4.9285951635414356e-03 0.0000000000000000e+00  -1.126721971