<?xml version="1.0"?>
<VTKFile type="UnstructuredGrid"  version="0.1"  >
<UnstructuredGrid>
<Piece  NumberOfPoints="3290" NumberOfCells="6322">
<Points>
<DataArray  type="Float64"  NumberOfComponents="3"  format="ascii">-0.5160862484196727 -0.3897302439405937 0  -0.5133826000005862 -0.468010078207307 0  -0.4931554731025979 -0.5409657842320755 0  -0.4516628076578727 -0.598098216853754 0  -0.3905213054628269 -0.6307135642267881 0  -0.3171149756697722 -0.6368527224093006 0  -0.2408003738831648 -0.6215774161552756 0  -0.1686781634133316 -0.5928422508703267 0  -0.1042331703988693 -0.5575982120352384 0  -0.04822331482546105 -0.520412446316927 0  -2.962202233476883e-17 -0.4837643368748088 0  0.04158486593948669 -0.4487721736188808 0  0.07772481586376639 -0.4157910403239014 0  0.1094818445308643 -0.3847887706843679 0  0.1377425831400694 -0.3555545929687752 0  0.1632281464248298 -0.3278063081219087 0  0.1865208226005266 -0.3012414717949078 0  0.208092570944144 -0.2755590974328844 0  0.2283301180803587 -0.2504662081798418 0  0.2475554792293605 -0.2256766380369105 0  0.2660421952426895 -0.2009057400152034 0  0.2840279637040802 -0.1758626696250696 0  0.3017242954789948 -0.1502408472995534 0  0.3193235954001508 -0.1237066199053542 0  0.3370037091493083 -0.09588582230658144 0  0.3549294526649713 -0.0663478133908854 0  0.3732498043258707 -0.03458668782795926 0  0.3920880207612594 0 0  0.4115194543881349 0.03813289314313524 0  0.4315275289961662 0.08066647541333546 0  0.451921147172489 0.1285826524691727 0  0.4721862975278283 0.1829259462007294 0  0.4912344757220602 0.2446057044828603 0  0.5070199255822888 0.3139334469154753 0  0.5160862484196724 0.3897302439405935 0  0.5133826000005861 0.4680100782073069 0  0.4931554731025979 0.5409657842320755 0  0.4516628076578727 0.598098216853754 0  0.3905213054628269 0.6307135642267881 0  0.3171149756697723 0.6368527224093007 0  0.2408003738831648 0.6215774161552757 0  0.1686781634133316 0.5928422508703268 0  0.1042331703988693 0.5575982120352383 0  0.04822331482546105 0.520412446316927 0  2.962202233476883e-17 0.4837643368748089 0  -0.04158486593948669 0.4487721736188808 0  -0.07772481586376638 0.4157910403239013 0  -0.1094818445308643 0.3847887706843679 0  -0.1377425831400694 0.3555545929687752 0  -0.1632281464248298 0.3278063081219087 0  -0.1865208226005266 0.3012414717949078 0  -0.208092570944144 0.2755590974328844 0  -0.2283301180803587 0.2504662081798418 0  -0.2475554792293605 0.2256766380369105 0  -0.2660421952426895 0.2009057400152034 0  -0.2840279637040802 0.1758626696250696 0  -0.3017242954789948 0.1502408472995534 0  -0.3193235954001508 0.1237066199053542 0  -0.3370037091493083 0.09588582230658144 0  -0.3549294526649713 0.0663478133908854 0  -0.3732498043258706 0.03458668782795925 0  -0.3920880207612594 0 0  -0.4115194543881349 -0.03813289314313524 0  -0.4315275289961662 -0.08066647541333546 0  -0.451921147172489 -0.1285826524691727 0  -0.4721862975278283 -0.1829259462007294 0  -0.4912344757220603 -0.2446057044828603 0  -0.5070199255822888 -0.3139334469154753 0  -1.1 1.1 0  -1.1 0 0  1.1 0 0  1.1 1.1 0  -1.1 -1.1 0  1.1 -1.1 0  0 -1.1 0  0.7460440103806297 0 0  0 1.1 0  -0.7460440103806297 0 0  -0.55 -1.1 0  0.5690660155709446 0 0  0.55 1.1 0  -0.5690660155709446 0 0  0.480577018166102 0 0  -0.480577018166102 0 0  0.55 -1.1 0  -0.55 1.1 0  -1.1 0.55 0  1.1 -0.55 0  1.1 0.55 0  -1.1 -0.55 0  -0.6043136006250637 0.5744061527212613 0  0.5972764001818845 -0.5972764001818844 0  -0.2627395336269969 0.7918821684374044 0  0.275 -0.8205541016674645 0  0.792894470924977 0.792894470924977 0  -0.792894470924977 -0.792894470924977 0  -0.8250000000000001 1.1 0  0.8250000000000001 -1.1 0  -0.00447715787735542 -0.005928715177821897 0  -1.1 0.275 0  -1.1 -0.275 0  1.1 0.275 0  0.8264016057272325 -0.337180671107953 0  1.1 -0.8250000000000001 0  -1.1 0.8250000000000001 0  0.8164351293541374 0.4392903751960269 0  -0.8164351293541374 -0.4392903751960274 0  -0.7855536650066745 0.3144372450583008 0  0.1718524254555881 0.2373281193382249 0  -0.1880473414267977 -0.2579339819865719 0  -0.8009642819678691 0.8009642819678691 0  -0.275 -1.1 0  0.275 1.1 0  0.5463602278604176 -0.2933963572934781 0  0.6875000000000001 -0.8593458255532795 0  1.1 -0.275 0  -0.8250000000000001 -1.1 0  -1.1 -0.8250000000000001 0  0.275 -1.1 0  -0.275 1.1 0  1.1 0.8250000000000001 0  0.8250000000000001 1.1 0  -0.1375 -0.8693954116841207 0  0.1064958550623685 0.853790358860501 0  -0.5284065230390054 0.8321653402761913 0  -0.5150717891925323 0.3165165690948232 0  0.3446008172912755 -0.5199668447050241 0  0.8562594957666521 -0.6546808594861309 0  -0.3450446994490443 0.5203745306894093 0  -0.8517401532136575 0.553741017526133 0  -0.5392690647197929 -0.8419054939084467 0  0.5392690647197929 0.8419054939084467 0  0.9230220051903149 0 0  0.8799970113649294 0.2221366634812519 0  -0.8702865658191692 -0.2053764532022771 0  -0.9230220051903149 0 0  0.1081499690031921 -0.6761244918770046 0  0.323923354239676 0.88575085502297 0  0.07513548028446373 -0.898904731454172 0  0.4867083364042233 -0.7819075890727091 0  0.8984344852179978 -0.898434485217998 0  -0.09961847455039373 0.6648983481770481 0  -0.1375 0.9511684824522866 0  -0.341688691084536 -0.9039412032931415 0  0.9081132391331697 0.622979346591063 0  -0.9081132391331699 -0.6229793465910632 0  0.6381301074603281 0.6727539256341986 0  -0.6920547805440491 -0.6085955811431764 0  -0.6875 0.9605680711149762 0  0.2808926510841531 0.4160729382986002 0  0.6858117655741435 0.2367627849707857 0  -1.1 -0.9625000000000001 0  -0.9625000000000001 -1.1 0  -0.9402524801086827 0.9402524801086827 0  0.9334331837629624 0.9334331837629624 0  -0.310096031713518 -0.4258767263491455 0  0.6933542901530705 0.9585315918649174 0  -0.6875 -1.1 0  0.4098874187910866 -0.9602770508337323 0  -0.6492446622621997 0.1765412839423985 0  -0.6820670532099188 -0.2376154302061895 0  -0.955508933377924 0.3962359179401397 0  -0.1955724505300511 -0.04673629323575065 0  -0.02930565286842499 0.1868856988163166 0  -0.3759129554850833 0.9416816766780505 0  -1.1 0.6875 0  0.1880358191201622 0.04006083225120879 0  0.004939311542144831 -0.2056503997717583 0  -0.4493703733149548 0.6688336462757524 0  0.6575550129757871 -0.1544248893955772 0  -0.89375 -0.9375817564504311 0  0.9359385930715032 -0.1861351036379371 0  0.9288927966543378 -0.4876963641671958 0  0.7490474289161785 -0.500006421990187 0  -0.8345330077854723 0.1485820396687704 0  -0.9526221050131491 -0.3474874350126275 0  0.9622406561690456 0.364089035751977 0  -1.1 0.1375 0  -0.6875260411803015 -0.9283711927709821 0  -0.9334520783657916 0.6993493204625773 0  0.331103445865065 0.2602768351897926 0  -0.4908618601818887 0.1590170800328808 0  -0.7194617155189347 0.4615217103035478 0  -0.05711429397762655 -0.7202987863839724 0  1.1 0.1375 0  0.4125 1.1 0  0.3771996979418409 -0.3460710441524628 0  0.501314767806994 -0.4593413504026708 0  0.1158307008236198 0.3814001385529897 0  0.9499568909668406 0.7753756158197642 0  -0.9499568909668406 -0.7753756158197644 0  0.2676170208187517 -0.6604929324776474 0  0.1885435740774203 -0.5258245761441455 0  -1.1 -0.1375 0  0.1338067140511727 -0.1106038738867752 0  0.670500692519117 0.5126556269485967 0  -0.6653837188303788 -0.4586609244825373 0  -0.340698074497214 -0.2753178949439145 0  0.4814859634243747 -0.1538690993143499 0  -0.7359370131355605 0.658782751843396 0  -0.07372334464534235 -0.353945221299413 0  0.1375 1.1 0  0.4480748545424982 -0.6333486388183753 0  0.9628049346608982 -0.7617714804214962 0  0.0522339498808219 0.7061001628859175 0  -0.04601997953787818 0.8260121140851063 0  0.5623844236084226 -0.94746791665862 0  0.6875 -1.1 0  -0.3550291929838079 0.3558678063237222 0  -0.9515494498026732 0.2447955000904344 0  -0.2505607116408189 -0.7710847573662865 0  0.6783530655934121 -0.3666340833239249 0  0.4509096418991462 0.9586857539324289 0  -0.1864767365362259 0.531748754991089 0  -0.1220768953863124 0.07693387470358481 0  -0.4125 -1.1 0  -0.4704142517473652 -0.9682658925631447 0  1.1 -0.9625000000000001 0  0.9625000000000001 -1.1 0  0.20625 0.9715907316052445 0  -0.3079191549850917 0.6573491110488189 0  0.1375 -1.1 0  0.20625 -0.9684609483994446 0  0.967297698966556 -0.3241169051501882 0  0.7935740073037152 -0.1981339310463631 0  -0.9678494143271985 -0.4912889945013318 0  -0.5679013193362232 -0.6939739497621658 0  0.008789219098236448 0.9576649488526725 0  -0.4097747154903438 -0.775132254702514 0  0.6196937942071102 -0.7361241990056197 0  0.7562500000000001 -0.9796729127766398 0  0.252144524567414 0.7631721138626096 0  0.6929732059312427 0.3755314955628161 0  -1.1 -0.6875 0  1.1 -0.6875 0  1.1 -0.4125 0  1.1 -0.1375 0  -1.1 0.4125 0  0.6875 1.1 0  -0.9625000000000001 1.1 0  -0.6875 1.1 0  -0.1375 1.1 0  -0.1375 -1.1 0  -1.1 0.9625000000000001 0  1.1 0.6875 0  1.1 0.9625000000000001 0  0.9625000000000001 1.1 0  0.4125 -1.1 0  -0.4125 1.1 0  1.1 0.4125 0  -1.1 -0.4125 0  0.7671583187862153 0.6155207045752901 0  -0.6656387960337928 0.8248932082373834 0  -0.5829279764912881 0.437420870910703 0  -0.2770423383195943 -0.1553720241961787 0  -0.6502847019354996 0.3118313478353735 0  -0.5106620445204944 0.9683837319660995 0  -0.5907667023033163 0.710473217756075 0  -0.3982515962203932 0.7943586343055025 0  -0.2248895038381496 -0.9735837388717463 0  -0.04300587215624464 -0.9693475447530383 0  0.9851772754319252 -0.61875 0  0.8097637275424603 -0.7882511328839437 0  0.7217968984245307 -0.6484057690545506 0  -0.4764437526225509 0.5389229561975589 0  0.9368930911326537 0.493892993374731 0  0.2635699227795849 -0.4147731905982992 0  0.6575550129757872 0.1035313842901075 0  0.413065419525123 0.7728145295304911 0  -0.5974789624509776 -0.1321651168979339 0  0.2990867484264771 0.1244957676534639 0  0.09150171793001398 0.131438846807771 0  0.7884900541063655 0.1258607043633205 0  -0.6628020289551649 -0.8004277779653547 0  0.6687084112085193 0.8309925062044559 0  -0.1138330800055183 -0.14955677364709 0  -0.8155925728230499 0.9717636964327401 0  0.3707575302709356 
[...]
<CellData  Scalars="f_49"> 
<DataArray  type="Float64"  Name="f_49"  format="ascii">0.0000000000000000e+00   1.0000000000000000e+00   1.0000000000000000e+00   1.0000000000000000e+00   0.0000000000000000e+00   0.0000000000000000e+00   1.0000000000000000e+00   1.0000000000000000e+00   0.0000000000000000e+00   0.0000000000000000e+00   1.0000000000000000e+00   0.0000000000000000e+00   1.0000000000000000e+00   0.0000000000000000e+00   1.0000000000000000e+00   0.0000000000000000e+00   1.0000000000000000e+00   0.0000000000000000e+00   1.0000000000000000e+00   1.0000000000000000e+00   0.0000000000000000e+00   1.0000000000000000e+00   1.0000000000000000e+00   1.0000000000000000e+00   0.0000000000000000e+00   1.0000000000000000e+00   0.0000000000000000e+00   1.0000000000000000e+00   0.0000000000000000e+00   1.0000000000000000e+00   0.0000000000000000e+00   0.0000000000000000e+00   0.0000000000000000e+00   1.0000000000000000e+00   1.0000000000000000e+00   0.0000000000000000e+00   1.0000000000000000e+00   0.0000000000000000e+00   1.0000000000000000e+00   0.0000000000000000e+00   1.0000000000000000e+00   0.0000000000000000e+00   1.0000000000000000e+00   0.0000000000000000e+00   1.0000000000000000e+00   0.0000000000000000e+00   1.0000000000000000e+00   0.0000000000000000e+00   1.0000000000000000e+00   0.0000000000000000e+00   1.0000000000000000e+00   0.0000000000000000e+00   1.0000000000000000e+00   0.0000000000000000e+00   1.0000000000000000e+00   0.0000000000000000e+00   1.0000000000000000e+00   0.0000000000000000e+00   1.0000000000000000e+00   0.0000000000000000e+00   1.0000000000000000e+00   0.0000000000000000e+00   1.0000000000000000e+00   1.0000000000000000e+00   1.0000000000000000e+00   1.0000000000000000e+00   1.0000000000000000e+00   1.0000000000000000e+00   0.0000000000000000e+00   1.0000000000000000e+00   0.0000000000000000e+00   1.0000000000000000e+00   0.0000000000000000e+00   1.0000000000000000e+00   0.0000000000000000e+00   1.0000000000000000e+00   0.0000000000000000e+00   1.0000000000000000e+00   0.0000000000000000e+00   1.0000000000000000e+00   0.0000000000000000e+00   1.0000000000000000e+00   1.0000000000000000e+00   1.0000000000000000e+00   0.0000000000000000e+00   1.0000000000000000e+00   0.0000000000000000e+00   1.0000000000000000e+00   0.0000000000000000e+00   1.0000000000000000e+00   0.0000000000000000e+00   1.0000000000000000e+00   0.0000000000000000e+00   1.0000000000000000e+00   1.0000000000000000e+00   0.0000000000000000e+00   1.0000000000000000e+00   0.0000000000000000e+00   1.0000000000000000e+00   0.0000000000000000e+00   1.0000000000000000e+00   0.0000000000000000e+00   1.0000000000000000e+00   0.0000000000000000e+00   1.0000000000000000e+00   0.0000000000000000e+00   1.0000000000000000e+00   0.0000000000000000e+00   1.0000000000000000e+00   0.0000000000000000e+00   1.0000000000000000e+00   0.0000000000000000e+00   1.0000000000000000e+00   0.0000000000000000e+00   1.0000000000000000e+00   1.0000000000000000e+00   0.0000000000000000e+00   0.0000000000000000e+00   0.0000000000000000e+00   0.0000000000000000e+00   0.0000000000000000e+00   0.0000000000000000e+00   0.0000000000000000e+00   0.0000000000000000e+00   0.0000000000000000e+00   0.0000000000000000e+00   0.0000000000000000e+00   0.0000000000000000e+00   0.0000000000000000e+00   0.0000000000000000e+00   0.0000000000000000e+00   0.0000000000000000e+00   0.0000000000000000e+00   0.0000000000000000e+00   0.0000000000000000e+00   0.0000000000000000e+00   0.0000000000000000e+00   0.0000000000000000e+00   0.0000000000000000e+00   0.0000000000000000e+00   0.0000000000000000e+00   0.0000000000000000e+00   0.0000000000000000e+00   0.0000000000000000e+00   0.0000000000000000e+00   0.0000000000000000e+00   0.0000000000000000e+00   0.0000000000000000e+00   0.0000000000000000e+00   0.0000000000000000e+00   0.0000000000000000e+00   0.0000000000000000e+00   0.0000000000000000e+00   0.0000000000000000e+00   0.0000000000000000e+00   0.0000000000000000e+00   0.0000000000000000e+00   0.0000000000000000e+00   0.0000000000000000e+00   0.0000000000000000e+00   1.0000000000000000e+00   1.0000000000000000e+00   0.0000000000000000e+00   0.0000000000000000e+00   0.0000000000000000e+00   0.0000000000000000e+00   0.0000000000000000e+00   0.0000000000000000e+00   0.0000000000000000e+00   0.0000000000000000e+00   0.0000000000000000e+00   0.0000000000000000e+00   1.0000000000000000e+00   0.0000000000000000e+00   0.0000000000000000e+00   0.0000000000000000e+00   0.0000000000000000e+00   0.0000000000000000e+00   1.0000000000000000e+00   1.0000000000000000e+00   1.0000000000000000e+00   1.0000000000000000e+00   0.0000000000000000e+00   0.0000000000000000e+00   0.0000000000000000e+00   0.0000000000000000e+00   0.0000000000000000e+00   0.0000000000000000e+00   0.0000000000000000e+00   0.0000000000000000e+00   0.0000000000000000e+00   0.0000000000000000e+00   0.0000000000000000e+00   0.0000000000000000e+00   0.0000000000000000e+00   0.0000000000000000e+00   0.0000000000000000e+00   0.0000000000000000e+00   0.0000000000000000e+00   0.0000000000000000e+00   0.0000000000000000e+00   0.0000000000000000e+00   0.0000000000000000e+00   0.0000000000000000e+00   0.0000000000000000e+00   0.0000000000000000e+00   0.0000000000000000e+00   0.0000000000000000e+00   0.0000000000000000e+00   0.0000000000000000e+00   0.0000000000000000e+00   0.0000000000000000e+00   0.0000000000000000e+00   0.0000000000000000e+00   0.0000000000000000e+00   0.0000000000000000e+00   0.0000000000000000e+00   0.0000000000000000e+00   0.0000000000000000e+00   0.0000000000000000e+00   0.0000000000000000e+00   0.0000000000000000e+00   0.0000000000000000e+00   0.0000000000000000e+00   0.0000000000000000e+00   0.0000000000000000e+00   0.0000000000000000e+00   0.0000000000000000e+00   0.0000000000000000e+00   0.0000000000000000e+00   0.0000000000000000e+00   0.0000000000000000e+00   0.0000000000000000e+00   0.0000000000000000e+00   0.0000000000000000e+00   1.0000000000000000e+00   1.0000000000000000e+00   0.0000000000000000e+00   0.0000000000000000e+00   0.0000000000000000e+00   0.0000000000000000e+00   0.0000000000000000e+00   0.0000000000000000e+00   0.0000000000000000e+00   1.0000000000000000e+00   1.0000000000000000e+00   0.0000000000000000e+00   0.0000000000000000e+00   0.0000000000000000e+00   0.0000000000000000e+00   0.0000000000000000e+00   0.0000000000000000e+00   0.0000000000000000e+00   0.0000000000000000e+00   0.0000000000000000e+00   0.0000000000000000e+00   1.0000000000000000e+00   1.0000000000000000e+00   1.0000000000000000e+00   1.0000000000000000e+00   0.0000000000000000e+00   0.0000000000000000e+00   0.0000000000000000e+00   0.0000000000000000e+00   1.0000000000000000e+00   1.0000000000000000e+00   1.0000000000000000e+00   1.0000000000000000e+00   0.0000000000000000e+00   0.0000000000000000e+00   0.0000000000000000e+00   0.0000000000000000e+00   0.0000000000000000e+00   0.0000000000000000e+00   0.0000000000000000e+00   0.0000000000000000e+00   0.0000000000000000e+00   0.0000000000000000e+00   0.0000000000000000e+00   0.0000000000000000e+00   0.0000000000000000e+00   0.0000000000000000e+00   0.0000000000000000e+00   0.0000000000000000e+00   0.0000000000000000e+00   0.0000000000000000e+00   1.0000000000000000e+00   1.0000000000000000e+00   0.0000000000000000e+00   0.0000000000000000e+00   0.0000000000000000e+00   0.0000000000000000e+00   0.0000000000000000e+00   0.0000000000000000e+00   0.0000000000000000e+00   0.0000000000000000e+00   0.0000000000000000e+00   0.0000000000000000e+00   0.0000000000000000e+00   0.0000000000000000e+00   1.0000000000000000e+00   1.0000000000000000e+00   0.0000000000000000e+00   0.0000000000000000e+00   0.0000000000000000e+00   0.0000000000000000e+00   0.0000000000000000e+00   0.0000000000000000e+00   0.0000000000000000e+00   0.0000000000000000e+00   0.0000000000000000e+00   1.0000000000000000e+00   1.0000000000000000e+00   0.0000000000000000e+00   0.0000000000000000e+00   0.0000000000000000e+00   0.0000000000000000e+00   1.0000000000000000e+00   1.0000000000000000e+00   0.0000000000000000e+00   0.0000000000000000e+00   0.0000000000000000e+00   0.0000000000000000e+00   1.0000000000000000e+00   1.0000000000000000e+00   0.0000000000000000e+00   0.0000000000000000e+00   0.0000000000000000e+00   0.0000000000000000e+00   0.0000000000000000e+00   0.0000000000000000e+00   0.0000000000000000e+00   0.0000000000000000e+00   0.0000000000000000e+00   0.0000000000000000e+00   0.0000000000000000e+00   0.0000000000000000e+00   0.0000000000000000e+00   0.0000000000000000e+00   0.0000000000000000e+00   0.0000000000000000e+00   0.0000000000000000e+00   0.0000000000000000e+00   0.0000000000000000e+00   0.0000000000000000e+00   0.0000000000000000e+00   0.0000000000000000e+00   1.0000000000000000e+00   1.0000000000000000e+00   0.0000000000000000e+00   0.0000000000000000e+00   0.0000000000000000e+00   0.0000000000000000e+00   0.0000000000000000e+00   0.0000000000000000e+00   0.0000000000000000e+00   0.0000000000000000e+00   0.0000000000000000e+00   0.0000000000000000e+00   0.0000000000000000e+00   0.0000000000000000e+00   0.0000000000000000e+00   0.0000000000000000e+00   0.0000000000000000e+00   0.0000000000000000e+00   0.0000000000000000e+00   0.0000000000000000e+00   0.0000000000000000e+00   0.0000000000000000e+00   0.0000000000000000e+00   0.0000000000000000e+00   0.0000000000000000e+00   0.0000000000000000e+00   0.0000000000000000e+00   0.0000000000000000e+00   0.0000000000000000e+00   0.0000000000000000e+00   0.0000000000000000e+00   0.0000000000000000e+00   0.0000000000000000e+00   0.0000000000000000e+00   0.0000000000000000e+00   0.0000000000000000e+00   0.0000000000000000e+00   0.0000000000000000e+00   0.0000000000000000e+00   0.0000000000000000e+00   0.0000000000000000e+00   0.0000000000000000e+00   0.0000000000000000e+00   0.0000000000000000e+00   0.0000000000000000e+00   0.0000000000000000e+00   0.0000000000000000e+00   0.0000000000000000e+00   0.0000000000000000e+00   0.0000000000000000e+00   0.0000000000000000e+00   0.0000000000000000e+00   0.0000000000000000e+00   0.0000000000000000e+00   0.0000000000000000e+00   0.0000000000000000e+00   0.0000000000000000e+00   0.0000000000000000e+00   1.0000000000000000e+00   1.0000000000000000e+00   0.0000000000000000e+00   0.0000000000000000e+00   0.0000000000000000e+00   0.0000000000000000e+00   0.0000000000000000e+00   0.0000000000000000e+00   0.0000000000000000e+00   0.0000000000000000e+00   0.0000000000000000e+00   0.0000000000000000e+00   0.0000000000000000e+00   0.0000000000000000e+00   0.0000000000000000e+00   0.0000000000000000e+00   0.0000000000000000e+00   0.0000000000000000e+00   0.0000000000000000e+00   0.0000000000000000e+00   0.0000000000000000e+00   0.0000000000000000e+00   0.0000000000000000e+00   0.0000000000000000e+00   0.0000000000000000e+00   0.0000000000000000e+00   0.0000000000000000e+00   0.0000000000000000e+00   0.0000000000000000e+00   1.0000000000000000e+00   1.0000000000000000e+00   1.0000000000000000e+00   1.0000000000000000e+00   0.0000000000000000e+00   0.0000000000000000e+00   0.0000000000000000e+00   0.0000000000000000e+00   0.0000000000000000e+00   0.0000000000000000e+00   1.0000000000000000e+00   1.0000000000000000e+00   0.0000000000000000e+00   0.0000000000000000e+00   0.0000000000000000e+00   1.0000000000000000e+00   1.0000000000000000e+00   0.0000000000000000e+00   1.0000000000000000e+00   1.0000000000000000e+00   0.0000000000000000e+00   0.0000000000000000e+00   0.0000000000000000e+00   0.0000000000000000e+00   0.0000000000000000e+00   0.0000000000000000e+00   0.0000000000000000e+00   0.0000000000000000e+00   0.0000000000000000e+00   0.0000000000000000e+00   0.0000000000000000e+00   1.0000000000000000e+00   1.0000000000000000e+00   0.0000000000000000e+00   0.0000000000000000e+00   0.0000000000000000e+00   0.0000000000000000e+00   0.0000000000000000e+00   0.0000000000000000e+00   0.0000000000000000e+00   0.0000000000000000e+00   0.0000000000000000e+00   0.0000000000000000e+00   0.0000000000000000e+00   0.0000000000000000e+00   0.0000000000000000e+00   0.0000000000000000e+00   0.0000000000000000e+00   0.0000000000000000e+00   0.0000000000000000e+00   0.0000000000000000e+00   1.0000000000000000e+00   1.0000000000000000e+00   0.0000000000000000e+00   0.0000000000000000e+00   0.0000000000000000e+00   0.0000000000000000e+00   1.0000000000000000e+00   1.0000000000000000e+00   0.0000000000000000e+00   0.0000000000000000e+00   0.0000000000000000e+00   0.0000000000000000e+00   0.0000000000000000e+00   0.0000000000000000e+00   0.0000000000000000e+00   0.0000000000000000e+00   0.0000000000000000e+00   0.0000000000000000e+00   0.0000000000000000e+00   1.0000000000000000e+00   1.0000000000000000e+00   0.0000000000000000e+00   0.0000000000000000e+00   0.0000000000000000e+00   0.0000000000000000e+00   0.0000000000000000e+00   0.0000000000000000e+00   0.0000000000000000e+00   1.0000000000000000e+00   1.0000000000000000e+00   0.0000000000000000e+00   0.0000000000000000e+00   0.0000000000000000e+00   0.0000000000000000e+00   0.0000000000000000e+00   0.0000000000000000e+00   0.0000000000000000e+00   0.0000000000000000e+00   0.0000000000000000e+00   0.0000000000000000e+00   0.0000000000000000e+00   0.0000000000000000e+00   0.0000000000000000e+00   0.0000000000000000e+00   0.0000000000000000e+00   0.0000000000000000e+00   0.0000000000000000e+00   0.0000000000000000e+00   0.0000000000000000e+00   0.0000000000000000e+00   0.0000000000000000e+00   1.0000000000000000e+00   1.0000000000000000e+00   0.0000000000000000e+00   0.0000000000000000e+00   1.0000000000000000e+00   1.0000000000000000e+00   1.0000000000000000e+00   1.0000000000000000e+00   1.0000000000000000e+00   1.0000000000000000e+00   1.0000000000000000e+00   1.0000000000000000e+00   0.0000000000000000e+00   0.0000000000000000e+00   1.0000000000000000e+00   1.0000000000000000e+00   0.0000000000000000e+00   0.0000000000000000e+00   0.0000000000000000e+00   0.0000000000000000e+00   0.0000000000000000e+00   0.0000000000000000e+00   0.0000000000000000e+00   0.0000000000000000e+00   1.0000000000000000e+00   1.0000000000000000e+00   0.0000000000000000e+00   0.0000000000000000e+00   0.0000000000000000e+00   0.0000000000000000e+00   0.0000000000000000e+00   0.0000000000000000e+00   0.0000000000000000e+00   1.0000000000000000e+00   1.0000000000000000e+00   0.0000000000000000e+00   0.0000000000000000e+00   0.0000000000000000e+00   0.0000000000000000e+00   0.0000000000000000e+00   0.0000000000000000e+00   0.0000000000000000e+00   0.0000000000000000e+00   0.0000000000000000e+00   0.0000000000000000e+00   0.0000000000000000e+00   0.0000000000000000e+00   0.0000000000000000e+00   0.0000000000000000e+00   0.0000000000000000e+00   0.0000000000000000e+00   0.0000000000000000e+00   0.0000000000000000e+00   0.0000000000000000e+00   0.0000000000000000e+00   0.0000000000000000e+00   0.0000000000000000e+00   1.0000000000000000e+00   1.0000000000000000e+00   0.0000000000000000e+00   0.0000000000000000e+00   0.0000000000000000e+00   0.0000000000000000e+00   1.0000000000000000e+00   1.0000000000000000e+00   0.0000000000000000e+00   0.0000000000000000e+00   0.0000000000000000e+00   0.0000000000000000e+00   0.0000000000000000e+00   0.0000000000000000e+00   0.0000000000000000e+00   0.0000000000000000e+00   0.0000000000000000e+00   0.0000000000000000e+00   0.0000000000000000e+00   0.0000000000000000e+00   0.0000000000000000e+00   1.0000000000000000e+00   1.0000000000000000e+00   1.0000000000000000e+00   1.0000000000000000e+00   0.0000000000000000e+00   0.0000000000000000e+00   0.0000000000000000e+00   0.0000000000000000e+00   0.0000000000000000e+00   0.0000000000000000e+00   0.0000000000000000e+00   0.0000000000000000e+00   0.0000000000000000e+00   0.0000000000000000e+00   0.0000000000000000e+00   1.0000000000000000e+00   1.0000000000000000e+00   1.0000000000000000e+00   1.0000000000000000e+00   0.0000000000000000e+00   0.0000000000000000e+00   0.0000000000000000e+00   0.0000000000000000e+00   0.0000000000000000e+00   1.0000000000000000e+00   1.0000000000000000e+00   0.0000000000000000e+00   0.0000000000000000e+00   0.0000000000000000e+00   0.0000000000000000e+00   0.0000000000000000e+00   0.0000000000000000e+00   0.0000000000000000e+00   0.0000000000000000e+00   0.0000000000000000e+00   0.0000000000000000e+00   0.0000000000000000e+00   0.0000000000000000e+00   0.0000000000000000e+00   0.0000000000000000e+00   0.0000000000000000e+00   1.0000000000000000e+00   1.0000000000000000e+00   0.0000000000000000e+00   0.0000000000000000e+00   0.0000000000000000e+00   0.0000000000000000e+00   0.0000000000000000e+00   0.0000000000000000e+00   0.0000000000000000e+00   1.0000000000000000e+00   1.0000000000000000e+00   0.0000000000000000e+00   0.0000000000000000e+00   0.0000000000000000e+00   0.0000000000000000e+00   0.0000000000000000e+00   0.0000000000000000e+00   0.0000000000000000e+00   0.0000000000000000e+00   0.0000000000000000e+00   0.0000000000000000e+00   0.0000000000000000e+00   0.0000000000000000e+00   0.0000000000000000e+00   0.0000000000000000e+00   0.0000000000000000e+00   0.0000000000000000e+00   1.0000000000000000e+00   0.0000000000000000e+00   0.0000000000000000e+00   0.0000000000000000e+00   0.0000000000000000e+00   0.0000000000000000e+00   0.0000000000000000e+00   0.0000000000000000e+00   0.0000000000000000e+00   0.0000000000000000e+00   0.0000000000000000e+00   0.0000000000000000e+00   0.0000000000000000e+00   0.0000000000000000e+00   0.0000000000000000e+00   0.0000000000000000e+00   0.0000000000000000e+00   1.0000000000000000e+00   1.0000000000000000e+00   0.0000000000000000e+00   0.0000000000000000e+00   0.0000000000000000e+00   0.0000000000000000e+00   0.0000000000000000e+00   0.0000000000000000e+00   0.0000000000000000e+00   0.0000000000000000e+00   0.0000000000000000e+00   0.0000000000000000e+00   0.0000000000000000e+00   0.0000000000000000e+00   0.0000000000000000e+00   0.0000000000000000e+00   0.0000000000000000e+00   0.0000000000000000e+00   0.0000000000000000e+00   0.0000000000000000e+00   0.0000000000000000e+00   0.0000000000000000e+00   1.0000000000000000e+00   1.0000000000000000e+00   1.0000000000000000e+00   1.0000000000000000e+00   0.0000000000000000e+00   0.0000000000000000e+00   0.0000000000000000e+00   0.0000000000000000e+00   0.0000000000000000e+00   0.0000000000000000e+00   0.0000000000000000e+00   0.0000000000000000e+00   0.0000000000000000e+00   0.0000000000000000e+00   0.0000000000000000e+00   0.0000000000000000e+00   0.0000000000000000e+00   0.0000000000000000e+00   0.0000000000000000e+00   0.0000000000000000e+00   0.0000000000000000e+00   0.0000000000000000e+00   0.0000000000000000e+00   0.0000000000000000e+00   0.0000000000000000e+00   0.0000000000000000e+00   0.0000000000000000e+00   0.0000000000000000e+00   0.0000000000000000e+00   0.0000000000000000e+00   0.0000000000000000e+00   0.0000000000000000e+00   0.0000000000000000e+00   0.0000000000000000e+00   0.0000000000000000e+00   0.0000000000000000e+00   0.0000000000000000e+00   0.0000000000000000e+00   0.0000000000000000e+00   0.0000000000000000e+00   0.0000000000000000e+00   0.0000000000000000e+00   0.0000000000000000e+00   0.0000000000000000e+00   0.0000000000000000e+00   0.0000000000000000e+00   0.0000000000000000e+00   0.0000000000000000e+00   0.0000000000000000e+00   1.0000000000000000e+00   1.0000000000000000e+00   0.0000000000000000e+00   0.0000000000000000e+00   0.0000000000000000e+00   0.0000000000000000e+00   0.0000000000000000e+00   0.0000000000000000e+00   0.0000000000000000e+00   0.0000000000000000e+00   0.0000000000000000e+00   0.0000000000000000e+00   0.0000000000000000e+00   1.0000000000000000e+00   1.0000000000000000e+00   0.0000000000000000e+00   0.0000000000000000e+00   0.0000000000000000e+00   0.0000000000000000e+00   0.0000000000000000e+00   0.0000000000000000e+00   0.0000000000000000e+00   0.0000000000000000e+00   0.0000000000000000e+00   0.0000000000000000e+00   0.0000000000000000e+00   0.00000000000000