<?xml version="1.0"?>
<VTKFile type="UnstructuredGrid"  version="0.1"  >
<UnstructuredGrid>
<Piece  NumberOfPoints="3290" NumberOfCells="6322">
<Points>
<DataArray  type="Float64"  NumberOfComponents="3"  format="ascii">-0.5160862484196727 -0.3897302439405937 0  -0.5133826000005862 -0.468010078207307 0  -0.4931554731025979 -0.5409657842320755 0  -0.4516628076578727 -0.598098216853754 0  -0.3905213054628269 -0.6307135642267881 0  -0.3171149756697722 -0.6368527224093006 0  -0.2408003738831648 -0.6215774161552756 0  -0.1686781634133316 -0.5928422508703267 0  -0.1042331703988693 -0.5575982120352384 0  -0.04822331482546105 -0.520412446316927 0  -2.962202233476883e-17 -0.4837643368748088 0  0.04158486593948669 -0.4487721736188808 0  0.07772481586376639 -0.4157910403239014 0  0.1094818445308643 -0.3847887706843679 0  0.1377425831400694 -0.3555545929687752 0  0.1632281464248298 -0.3278063081219087 0  0.1865208226005266 -0.3012414717949078 0  0.208092570944144 -0.2755590974328844 0  0.2283301180803587 -0.2504662081798418 0  0.2475554792293605 -0.2256766380369105 0  0.2660421952426895 -0.2009057400152034 0  0.2840279637040802 -0.1758626696250696 0  0.3017242954789948 -0.1502408472995534 0  0.3193235954001508 -0.1237066199053542 0  0.3370037091493083 -0.09588582230658144 0  0.3549294526649713 -0.0663478133908854 0  0.3732498043258707 -0.03458668782795926 0  0.3920880207612594 0 0  0.4115194543881349 0.03813289314313524 0  0.4315275289961662 0.08066647541333546 0  0.451921147172489 0.1285826524691727 0  0.4721862975278283 0.1829259462007294 0  0.4912344757220602 0.2446057044828603 0  0.5070199255822888 0.3139334469154753 0  0.5160862484196724 0.3897302439405935 0  0.5133826000005861 0.4680100782073069 0  0.4931554731025979 0.5409657842320755 0  0.4516628076578727 0.598098216853754 0  0.3905213054628269 0.6307135642267881 0  0.3171149756697723 0.6368527224093007 0  0.2408003738831648 0.6215774161552757 0  0.1686781634133316 0.5928422508703268 0  0.1042331703988693 0.5575982120352383 0  0.04822331482546105 0.520412446316927 0  2.962202233476883e-17 0.4837643368748089 0  -0.04158486593948669 0.4487721736188808 0  -0.07772481586376638 0.4157910403239013 0  -0.1094818445308643 0.3847887706843679 0  -0.1377425831400694 0.3555545929687752 0  -0.1632281464248298 0.3278063081219087 0  -0.1865208226005266 0.3012414717949078 0  -0.208092570944144 0.2755590974328844 0  -0.2283301180803587 0.2504662081798418 0  -0.2475554792293605 0.2256766380369105 0  -0.2660421952426895 0.2009057400152034 0  -0.2840279637040802 0.1758626696250696 0  -0.3017242954789948 0.1502408472995534 0  -0.3193235954001508 0.1237066199053542 0  -0.3370037091493083 0.09588582230658144 0  -0.3549294526649713 0.0663478133908854 0  -0.3732498043258706 0.03458668782795925 0  -0.3920880207612594 0 0  -0.4115194543881349 -0.03813289314313524 0  -0.4315275289961662 -0.08066647541333546 0  -0.451921147172489 -0.1285826524691727 0  -0.4721862975278283 -0.1829259462007294 0  -0.4912344757220603 -0.2446057044828603 0  -0.5070199255822888 -0.3139334469154753 0  -1.1 1.1 0  -1.1 0 0  1.1 0 0  1.1 1.1 0  -1.1 -1.1 0  1.1 -1.1 0  0 -1.1 0  0.7460440103806297 0 0  0 1.1 0  -0.7460440103806297 0 0  -0.55 -1.1 0  0.5690660155709446 0 0  0.55 1.1 0  -0.5690660155709446 0 0  0.480577018166102 0 0  -0.480577018166102 0 0  0.55 -1.1 0  -0.55 1.1 0  -1.1 0.55 0  1.1 -0.55 0  1.1 0.55 0  -1.1 -0.55 0  -0.6043136006250637 0.5744061527212613 0  0.5972764001818845 -0.5972764001818844 0  -0.2627395336269969 0.7918821684374044 0  0.275 -0.8205541016674645 0  0.792894470924977 0.792894470924977 0  -0.792894470924977 -0.792894470924977 0  -0.8250000000000001 1.1 0  0.8250000000000001 -1.1 0  -0.00447715787735542 -0.005928715177821897 0  -1.1 0.275 0  -1.1 -0.275 0  1.1 0.275 0  0.8264016057272325 -0.337180671107953 0  1.1 -0.8250000000000001 0  -1.1 0.8250000000000001 0  0.8164351293541374 0.4392903751960269 0  -0.8164351293541374 -0.4392903751960274 0  -0.7855536650066745 0.3144372450583008 0  0.1718524254555881 0.2373281193382249 0  -0.1880473414267977 -0.2579339819865719 0  -0.8009642819678691 0.8009642819678691 0  -0.275 -1.1 0  0.275 1.1 0  0.5463602278604176 -0.2933963572934781 0  0.6875000000000001 -0.8593458255532795 0  1.1 -0.275 0  -0.8250000000000001 -1.1 0  -1.1 -0.8250000000000001 0  0.275 -1.1 0  -0.275 1.1 0  1.1 0.8250000000000001 0  0.8250000000000001 1.1 0  -0.1375 -0.8693954116841207 0  0.1064958550623685 0.853790358860501 0  -0.5284065230390054 0.8321653402761913 0  -0.5150717891925323 0.3165165690948232 0  0.3446008172912755 -0.5199668447050241 0  0.8562594957666521 -0.6546808594861309 0  -0.3450446994490443 0.5203745306894093 0  -0.8517401532136575 0.553741017526133 0  -0.5392690647197929 -0.8419054939084467 0  0.5392690647197929 0.8419054939084467 0  0.9230220051903149 0 0  0.8799970113649294 0.2221366634812519 0  -0.8702865658191692 -0.2053764532022771 0  -0.9230220051903149 0 0  0.1081499690031921 -0.6761244918770046 0  0.323923354239676 0.88575085502297 0  0.07513548028446373 -0.898904731454172 0  0.4867083364042233 -0.7819075890727091 0  0.8984344852179978 -0.898434485217998 0  -0.09961847455039373 0.6648983481770481 0  -0.1375 0.9511684824522866 0  -0.341688691084536 -0.9039412032931415 0  0.9081132391331697 0.622979346591063 0  -0.9081132391331699 -0.6229793465910632 0  0.6381301074603281 0.6727539256341986 0  -0.6920547805440491 -0.6085955811431764 0  -0.6875 0.9605680711149762 0  0.2808926510841531 0.4160729382986002 0  0.6858117655741435 0.2367627849707857 0  -1.1 -0.9625000000000001 0  -0.9625000000000001 -1.1 0  -0.9402524801086827 0.9402524801086827 0  0.9334331837629624 0.9334331837629624 0  -0.310096031713518 -0.4258767263491455 0  0.6933542901530705 0.9585315918649174 0  -0.6875 -1.1 0  0.4098874187910866 -0.9602770508337323 0  -0.6492446622621997 0.1765412839423985 0  -0.6820670532099188 -0.2376154302061895 0  -0.955508933377924 0.3962359179401397 0  -0.1955724505300511 -0.04673629323575065 0  -0.02930565286842499 0.1868856988163166 0  -0.3759129554850833 0.9416816766780505 0  -1.1 0.6875 0  0.1880358191201622 0.04006083225120879 0  0.004939311542144831 -0.2056503997717583 0  -0.4493703733149548 0.6688336462757524 0  0.6575550129757871 -0.1544248893955772 0  -0.89375 -0.9375817564504311 0  0.9359385930715032 -0.1861351036379371 0  0.9288927966543378 -0.4876963641671958 0  0.7490474289161785 -0.500006421990187 0  -0.8345330077854723 0.1485820396687704 0  -0.9526221050131491 -0.3474874350126275 0  0.9622406561690456 0.364089035751977 0  -1.1 0.1375 0  -0.6875260411803015 -0.9283711927709821 0  -0.9334520783657916 0.6993493204625773 0  0.331103445865065 0.2602768351897926 0  -0.4908618601818887 0.1590170800328808 0  -0.7194617155189347 0.4615217103035478 0  -0.05711429397762655 -0.7202987863839724 0  1.1 0.1375 0  0.4125 1.1 0  0.3771996979418409 -0.3460710441524628 0  0.501314767806994 -0.4593413504026708 0  0.1158307008236198 0.3814001385529897 0  0.9499568909668406 0.7753756158197642 0  -0.9499568909668406 -0.7753756158197644 0  0.2676170208187517 -0.6604929324776474 0  0.1885435740774203 -0.5258245761441455 0  -1.1 -0.1375 0  0.1338067140511727 -0.1106038738867752 0  0.670500692519117 0.5126556269485967 0  -0.6653837188303788 -0.4586609244825373 0  -0.340698074497214 -0.2753178949439145 0  0.4814859634243747 -0.1538690993143499 0  -0.7359370131355605 0.658782751843396 0  -0.07372334464534235 -0.353945221299413 0  0.1375 1.1 0  0.4480748545424982 -0.6333486388183753 0  0.9628049346608982 -0.7617714804214962 0  0.0522339498808219 0.7061001628859175 0  -0.04601997953787818 0.8260121140851063 0  0.5623844236084226 -0.94746791665862 0  0.6875 -1.1 0  -0.3550291929838079 0.3558678063237222 0  -0.9515494498026732 0.2447955000904344 0  -0.2505607116408189 -0.7710847573662865 0  0.6783530655934121 -0.3666340833239249 0  0.4509096418991462 0.9586857539324289 0  -0.1864767365362259 0.531748754991089 0  -0.1220768953863124 0.07693387470358481 0  -0.4125 -1.1 0  -0.4704142517473652 -0.9682658925631447 0  1.1 -0.9625000000000001 0  0.9625000000000001 -1.1 0  0.20625 0.9715907316052445 0  -0.3079191549850917 0.6573491110488189 0  0.1375 -1.1 0  0.20625 -0.9684609483994446 0  0.967297698966556 -0.3241169051501882 0  0.7935740073037152 -0.1981339310463631 0  -0.9678494143271985 -0.4912889945013318 0  -0.5679013193362232 -0.6939739497621658 0  0.008789219098236448 0.9576649488526725 0  -0.4097747154903438 -0.775132254702514 0  0.6196937942071102 -0.7361241990056197 0  0.7562500000000001 -0.9796729127766398 0  0.252144524567414 0.7631721138626096 0  0.6929732059312427 0.3755314955628161 0  -1.1 -0.6875 0  1.1 -0.6875 0  1.1 -0.4125 0  1.1 -0.1375 0  -1.1 0.4125 0  0.6875 1.1 0  -0.9625000000000001 1.1 0  -0.6875 1.1 0  -0.1375 1.1 0  -0.1375 -1.1 0  -1.1 0.9625000000000001 0  1.1 0.6875 0  1.1 0.9625000000000001 0  0.9625000000000001 1.1 0  0.4125 -1.1 0  -0.4125 1.1 0  1.1 0.4125 0  -1.1 -0.4125 0  0.7671583187862153 0.6155207045752901 0  -0.6656387960337928 0.8248932082373834 0  -0.5829279764912881 0.437420870910703 0  -0.2770423383195943 -0.1553720241961787 0  -0.6502847019354996 0.3118313478353735 0  -0.5106620445204944 0.9683837319660995 0  -0.5907667023033163 0.710473217756075 0  -0.3982515962203932 0.7943586343055025 0  -0.2248895038381496 -0.9735837388717463 0  -0.04300587215624464 -0.9693475447530383 0  0.9851772754319252 -0.61875 0  0.8097637275424603 -0.7882511328839437 0  0.7217968984245307 -0.6484057690545506 0  -0.4764437526225509 0.5389229561975589 0  0.9368930911326537 0.493892993374731 0  0.2635699227795849 -0.4147731905982992 0  0.6575550129757872 0.1035313842901075 0  0.413065419525123 0.7728145295304911 0  -0.5974789624509776 -0.1321651168979339 0  0.2990867484264771 0.1244957676534639 0  0.09150171793001398 0.131438846807771 0  0.7884900541063655 0.1258607043633205 0  -0.6628020289551649 -0.8004277779653547 0  0.6687084112085193 0.8309925062044559 0  -0.1138330800055183 -0.14955677364709 0  -0.8155925728230499 0.9717636964327401 0  0.3707575302709356 
[...]
<PointData  Vectors="f_83"> 
<DataArray  type="Float64"  Name="f_83"  NumberOfComponents="3" format="ascii">6.3626685511521883e-02 -1.4507268638842119e-01 0.0000000000000000e+00  2.2500252780369556e-01 -2.2999940656386603e-01 0.0000000000000000e+00  1.1685676106203531e-01 -3.8813445176487482e-01 0.0000000000000000e+00  3.0599691406194574e-01 -4.8260775342488105e-01 0.0000000000000000e+00  5.4833603787091589e-01 -3.2541737502162144e-01 0.0000000000000000e+00  6.0303609367018129e-01 -1.2304374552856445e-01 0.0000000000000000e+00  5.8550729411396296e-01 -6.0775798522253281e-03 0.0000000000000000e+00  5.5497090559487683e-01 5.2876446697287381e-02 0.0000000000000000e+00  5.4292245125150662e-01 2.4807795058448299e-02 0.0000000000000000e+00  5.3648209131078994e-01 3.1160279049628477e-03 0.0000000000000000e+00  4.8971465739518821e-01 3.3987223982556852e-02 0.0000000000000000e+00  4.5513196093925196e-01 4.7380493879318822e-02 0.0000000000000000e+00  3.7515837509860689e-01 1.1702905913664474e-01 0.0000000000000000e+00  4.1033734617599843e-01 5.9593806540966070e-02 0.0000000000000000e+00  3.5775948984711831e-01 9.6682254741418075e-02 0.0000000000000000e+00  3.5215705111612272e-01 8.9203887403087156e-02 0.0000000000000000e+00  3.6838003732954477e-01 6.1937966107363483e-02 0.0000000000000000e+00  3.9276559585442111e-01 3.0354699080478734e-02 0.0000000000000000e+00  2.6298242816550049e-01 1.2996512491231962e-01 0.0000000000000000e+00  2.9804135447093311e-01 8.2427286916749651e-02 0.0000000000000000e+00  4.0241120013486820e-01 4.0300627171344430e-03 0.0000000000000000e+00  1.8804764844562050e-01 1.4141523463580755e-01 0.0000000000000000e+00  2.9958872310573043e-01 5.2417889639749651e-02 0.0000000000000000e+00  4.0700209956759209e-01 -1.9493229265515936e-02 0.0000000000000000e+00  1.7797027817116301e-01 1.0570296967837635e-01 0.0000000000000000e+00  2.6002302858069293e-01 5.4932293353816268e-02 0.0000000000000000e+00  2.6761993394343375e-01 3.3297086131359815e-02 0.0000000000000000e+00  2.0401506724341181e-01 5.4765616822267028e-02 0.0000000000000000e+00  2.1796488436666844e-01 3.2025972397776943e-02 0.0000000000000000e+00  2.6841082664937810e-01 -7.1041338765510612e-03 0.0000000000000000e+00  2.3171350255340584e-01 -1.2970813686095052e-02 0.0000000000000000e+00  3.0948451387856679e-01 -5.6591277684263558e-02 0.0000000000000000e+00  1.4878716299008096e-01 -4.2437862210954205e-02 0.0000000000000000e+00  1.6745828373320196e-01 -9.0579192778676182e-02 0.0000000000000000e+00  1.7935905039926583e-01 -1.5254900759487719e-01 0.0000000000000000e+00  9.1204631589772503e-02 -2.5311313191608792e-01 0.0000000000000000e+00  2.2419208451563316e-01 -3.5108951534733729e-01 0.0000000000000000e+00  3.8086056381773647e-01 -4.5977348117118200e-01 0.0000000000000000e+00  5.4998808735794524e-01 -3.2555387420064619e-01 0.0000000000000000e+00  6.5551624512955220e-01 -1.3378523895801017e-01 0.0000000000000000e+00  6.1071621452852853e-01 -3.0041174835453700e-02 0.0000000000000000e+00  5.4205264755537075e-01 6.0140538001103062e-02 0.0000000000000000e+00  5.3373056424681053e-01 4.2908892511526867e-02 0.0000000000000000e+00  4.8025738164284371e-01 6.2533255352184319e-02 0.0000000000000000e+00  4.6996838773636151e-01 5.3747560457578433e-02 0.0000000000000000e+00  4.9455802875975813e-01 2.6137554071798260e-03 0.0000000000000000e+00  3.8578488038007269e-01 1.0804904078445990e-01 0.0000000000000000e+00  3.3687230694203579e-01 1.3240170840299881e-01 0.0000000000000000e+00  4.1651582856141434e-01 3.9697085432278199e-02 0.0000000000000000e+00  4.8128630341507550e-01 -2.4159537122971166e-02 0.0000000000000000e+00  3.2355263652346850e-01 1.0029857146595521e-01 0.0000000000000000e+00  2.6869242053906073e-01 1.3051132420927078e-01 0.0000000000000000e+00  2.2316900215852156e-01 1.5362573055998102e-01 0.0000000000000000e+00  4.7358384308760315e-01 -4.4494294230809923e-02 0.0000000000000000e+00  2.0910469198220966e-01 1.3766759968489584e-01 0.0000000000000000e+00  2.7109199928164818e-01 8.4657327938903057e-02 0.0000000000000000e+00  3.7546293816012033e-01 7.0446141827630055e-03 0.0000000000000000e+00  3.4458215588478130e-01 1.6692599496879186e-02 0.0000000000000000e+00  2.5776442816218115e-01 6.1385353221912978e-02 0.0000000000000000e+00  1.2453248128397203e-01 1.2828886665771339e-01 0.0000000000000000e+00  2.6539639285581823e-01 3.5683715404838029e-02 0.0000000000000000e+00  2.7411622631873694e-01 1.7461918970254005e-02 0.0000000000000000e+00  3.4411496897097588e-01 -2.9146612105928976e-02 0.0000000000000000e+00  2.2057946511196019e-01 1.3159522546523092e-02 0.0000000000000000e+00  2.3046388171654697e-01 -1.1893255088051651e-02 0.0000000000000000e+00  2.5126897982917179e-01 -3.6837541183456099e-02 0.0000000000000000e+00  1.7299354632992353e-01 -4.8724253118201361e-02 0.0000000000000000e+00  1.8443666063745606e-01 -9.1924024573047422e-02 0.0000000000000000e+00  2.6490669823984722e-02 -8.8778189730040653e-03 0.0000000000000000e+00  -3.6501407698954101e-03 4.0971967016812112e-02 0.0000000000000000e+00  -3.8088984079968518e-03 4.0823508249161054e-02 0.0000000000000000e+00  4.3003424573879049e-03 -2.7509769069240388e-02 0.0000000000000000e+00  2.6490669823984722e-02 -8.8778189730040653e-03 0.0000000000000000e+00  4.3003424573879049e-03 -2.7509769069240388e-02 0.0000000000000000e+00  2.5141720244831256e-01 5.8632029073167231e-02 0.0000000000000000e+00  -7.3738072768384774e-02 7.4543753847889443e-02 0.0000000000000000e+00  2.5141720244831256e-01 5.8632029073167231e-02 0.0000000000000000e+00  -7.1729471156993782e-02 7.7171799620932860e-02 0.0000000000000000e+00  1.4252755141200088e-01 -1.7957022576775446e-02 0.0000000000000000e+00  -1.0930957532037941e-01 1.3776631581977034e-01 0.0000000000000000e+00  1.4210968026308590e-01 -1.7082808546996450e-02 0.0000000000000000e+00  -1.1136899597004041e-01 1.3435247643148740e-01 0.0000000000000000e+00  -9.7775953878759675e-02 1.6929613276822633e-01 0.0000000000000000e+00  -8.8189517939997034e-02 1.6063557121652414e-01 0.0000000000000000e+00  1.4210968026308590e-01 -1.7082808546996450e-02 0.0000000000000000e+00  1.4252755141200088e-01 -1.7957022576775446e-02 0.0000000000000000e+00  1.5109082122906400e-03 6.3714763316799622e-02 0.0000000000000000e+00  1.8164652042285251e-03 6.3746510626829955e-02 0.0000000000000000e+00  -6.6398909797786554e-04 -7.7948020646476462e-02 0.0000000000000000e+00  -1.0300295556162143e-03 -7.8261353629107980e-02 0.0000000000000000e+00  6.1447020232875828e-02 1.0881100073267601e-01 0.0000000000000000e+00  6.7199923954162868e-02 1.0486382991980828e-01 0.0000000000000000e+00  1.9154313658494743e-01 1.0906867399072129e-01 0.0000000000000000e+00  1.8621696530493176e-01 1.0011730062651082e-01 0.0000000000000000e+00  4.0993290229550366e-02 -1.1205598572796013e-01 0.0000000000000000e+00  4.2746782703524819e-02 -1.1135033937934419e-01 0.0000000000000000e+00  6.1052915253222387e-02 -2.7694107943338955e-02 0.0000000000000000e+00  6.1117655414373785e-02 -2.6449335060258695e-02 0.0000000000000000e+00  6.4762155890279860e-01 -1.7695646790233571e-01 0.0000000000000000e+00  -2.6834733846061760e-04 7.2508717903794498e-02 0.0000000000000000e+00  -4.4909667085354446e-03 -2.2315669154502372e-02 0.0000000000000000e+00  -3.4902239063387378e-03 -2.3476952732129169e-02 0.0000000000000000e+00  1.3624409124753237e-03 9.2920752237197451e-02 0.0000000000000000e+00  1.6112206134300626e-03 2.6136067000047461e-02 0.0000000000000000e+00  1.3545554833012188e-03 2.6859127694073396e-02 0.0000000000000000e+00  -7.0345408202295123e-02 -8.8009747598143465e-02 0.0000000000000000e+00  -6.7806553335304970e-02 -9.4312496256056491e-02 0.0000000000000000e+00  -2.3967702298691236e-03 1.0073552773857901e-01 0.0000000000000000e+00  6.4777112018132355e-01 -1.7487712707548356e-01 0.0000000000000000e+00  6.4787036029355316e-01 -1.7438205281757832e-01 0.0000000000000000e+00  5.4413519190314022e-02 4.1527397797904493e-02 0.0000000000000000e+00  2.2036453304510464e-01 2.7988225461014735e-02 0.0000000000000000e+00  2.2165117118962616e-01 2.9683104141856806e-02 0.0000000000000000e+00  5.0122634748541318e-04 1.5637688461316618e-01 0.0000000000000000e+00  8.3772824675744359e-02 3.8027689043168347e-02 0.0000000000000000e+00  -7.6839271192508682e-04 7.2568616379071943e-02 0.0000000000000000e+00  6.1052915253222387e-02 -2.7694107943338955e-02 0.0000000000000000e+00  1.3855736573798096e-03 -7.5510641162008910e-02 0.0000000000000000e+00  2.2165117118962616e-01 2.9683104141856806e-02 0.0000000000000000e+00  2.2036453304510464e-01 2.7988225461014735e-02 0.0000000000000000e+00  1.2359473471864476e-03 -7.4202598004251191e-02 0.0000000000000000e+00  6.1117655414373785e-02 -2.6449335060258695e-02 0.0000000000000000e+00  2.9668623893083801e-01 5.2498250223062044e-02 0.0000000000000000e+00  2.9904098857698308e-01 6.6512691845719132e-02 0.0000000000000000e+00  1.1850116544338224e-01 6.2310330040540478e-02 0.0000000000000000e+00  1.1155771379307752e-02 1.6687885505599764e-01 0.0000000000000000e+00  1.0945559210414833e-01 1.7958619990714572e-01 0.0000000000000000e+00  3.2816738298493422e-02 6.1546539072601741e-02 0.0000000000000000e+00  1.0959296558836966e-01 1.8206154778930123e-01 0.0000000000000000e+00  2.5724234114719535e-02 7.5410346801591824e-02 0.0000000000000000e+00  1.6411658515031902e-01 -1.3538594752121591e-01 0.0000000000000000e+00  1.7470069847800021e-01 -1.3376143620234879e-01 0.0000000000000000e+00  -3.3425501705928617e-02 5.1051819372129721e-02 0.0000000000000000e+00  -6.3443075535382046e-02 -7.1194361894651352e-03 0.0000000000000000e+00  -6.6304045671953596e-02 -1.6715478131021904e-03 0.0000000000000000e+00  -3.3620199122707112e-02 5.1302755709607586e-02 0.0000000000000000e+00  2.3598077922831992e-01 1.6962811003830297e-01 0.0000000000000000e+00  2.8019727586201815e-01 -4.5379767623549880e-02 0.0000000000000000e+00  2.4773363314086014e-01 8.5966477652612033e-02 0.0000000000000000e+00  1.2285184774756160e-01 8.0459764776354997e-02 0.0000000000000000e+00  3.8866167964228093e-02 1.6572248221628918e-02 0.0000000000000000e+00  2.3700234725144168e-01 1.7741989479655154e-01 0.0000000000000000e+00  2.3195832805351196e-01 7.4539635685033620e-02 0.0000000000000000e+00  2.6855638417469979e-01 -4.0109974893059355e-02 0.0000000000000000e+00  -6.3134150921585032e-03 -1.0315533445583898e-01 0.0000000000000000e+00  -7.9668305467490552e-03 -1.0222135819937891e-01 0.0000000000000000e+00  3.9466806333072250e-02 -2.1795506497736036e-01 0.0000000000000000e+00  -2.2183527538043490e-02 -1.9434970226145409e-01 0.0000000000000000e+00  9.2593372402613672e-02 1.4354882438024819e-02 0.0000000000000000e+00  6.4735632420013578e-01 -1.7051813018801645e-01 0.0000000000000000e+00  -1.4748620161558179e-01 2.7766696675744413e-03 0.0000000000000000e+00  2.6618767602610959e-03 -5.4828469249744965e-02 0.0000000000000000e+00  2.9628679869051280e-02 -2.6729564323270966e-02 0.0000000000000000e+00  3.1719845291559350e-02 5.6648307687252840e-03 0.0000000000000000e+00  2.9525461333565459e-02 -6.3262054177091243e-02 0.0000000000000000e+00  6.4623857620703584e-01 -1.7022548684358085e-01 0.0000000000000000e+00  1.0063563232021284e-01 -7.4921356465262545e-02 0.0000000000000000e+00  9.8676432396325467e-02 -2.6641581268824030e-02 0.0000000000000000e+00  1.6540384605153391e-01 4.2345114252770211e-02 0.0000000000000000e+00  -3.8473032913962688e-02 1.2960944705237742e-01 0.0000000000000000e+00  -1.4652982319126442e-01 2.7424897003398858e-03 0.0000000000000000e+00  3.3509462932278574e-03 7.8474102935997880e-02 0.0000000000000000e+00  6.4676955788712565e-01 -1.7672679482588471e-01 0.0000000000000000e+00  6.4862961894829285e-01 -1.7717706968958377e-01 0.0000000000000000e+00  1.7407550276964803e-01 5.3710314362595858e-02 0.0000000000000000e+00  1.2745452881977230e-03 4.8732987639007810e-02 0.0000000000000000e+00  6.4692708086627937e-01 -1.7695735932869081e-01 0.0000000000000000e+00  6.4868210527132131e-01 -1.7679991707689818e-01 0.0000000000000000e+00  1.1219330799564840e-01 1.1514907405079998e-01 0.0000000000000000e+00  -4.4408446832363425e-02 1.2522945308668004e-01 0.0000000000000000e+00  3.9554177840753782e-02 -6.4928585692804519e-02 0.0000000000000000e+00  -1.3681661176657624e-02 7.5522611963920280e-02 0.0000000000000000e+00  1.1452210928534089e-02 7.4802909524936234e-02 0.0000000000000000e+00  2.9878052455553795e-02 9.4148030840509600e-02 0.0000000000000000e+00  -2.8924507965595970e-02 8.5456641974954353e-02 0.0000000000000000e+00  -3.5932214303416872e-02 -4.5831386295916807e-02 0.0000000000000000e+00  -3.4681669908732428e-02 -4.7916723690607010e-02 0.0000000000000000e+00  -1.3873142284453292e-03 6.2073117729583432e-02 0.0000000000000000e+00  9.7799789402324741e-02 -8.2785028180485151e-02 0.0000000000000000e+00  2.3665027185967611e-02 5.2216669943586848e-02 0.0000000000000000e+00  6.4498644561541862e-01 -1.7342373625543367e-01 0.0000000000000000e+00  -4.7924649961577359e-02 1.8521565879151480e-01 0.0000000000000000e+00  2.4755117594960286e-02 1.0253299041960094e-01 0.0000000000000000e+00  3.1618332348270350e-01 1.3650391159581871e-01 0.0000000000000000e+00  -3.5686461734277348e-03 1.1555973179403083e-02 0.0000000000000000e+00  1.8749754379194750e-01 3.3478989666843473e-03 0.0000000000000000e+00  4.2295165862249233e-02 2.1059689090145398e-01 0.0000000000000000e+00  5.6834453009245049e-02 1.5312556490334361e-01 0.0000000000000000e+00  6.4908489403317948e-01 -1.7148233827468107e-01 0.0000000000000000e+00  1.4847055147310082e-02 -8.8981547566627406e-02 0.0000000000000000e+00  1.4116667978114436e-02 -8.8622275775445278e-02 0.0000000000000000e+00  1.6765023552470273e-01 1.5413975409646596e-01 0.0000000000000000e+00  1.7096789244937052e-01 2.2188347532481961e-01 0.0000000000000000e+00  -4.0110400417030703e-03 9.9937316909599564e-03 0.0000000000000000e+00  6.4545630052809921e-01 -1.7629270416773787e-01 0.0000000000000000e+00  -9.2167160981698595e-02 -1.8985759831909940e-01 0.0000000000000000e+00  -1.3223811884159450e-01 -1.6498380210689109e-01 0.0000000000000000e+00  6.4327287924869492e-01 -1.7305674508396590e-01 0.0000000000000000e+00  -5.0077290626546457e-02 1.8753958786756145e-01 0.0000000000000000e+00  5.1192560728652421e-02 7.4361931192312797e-02 0.0000000000000000e+00  6.4870749372452474e-01 -1.7266348428634576e-01 0.0000000000000000e+00  2.4348637776668952e-01 5.1162890469406822e-02 0.0000000000000000e+00  1.0828655174771101e-01 1.2675080894079083e-01 0.0000000000000000e+00  2.2234108866630509e-02 4.0362632677435721e-02 0.0000000000000000e+00  3.2572684707931160e-01 1.4669083048317275e-01 0.0000000000000000e+00  2.6061832451436123e-01 1.0474733139502462e-01 0.0000000000000000e+00  1.2275524830522583e-01 2.9293132773699115e-02 0.0000000000000000e+00  9.9461822619052578e-02 -2.7804105068671148e-02 0.0000000000000000e+00  5.2130698343378135e-02 2.2275602628293684e-01 0.0000000000000000e+00  -7.4150693270791743e-03 7.7548055772125021e-02 0.0000000000000000e+00  3.7976285479421051e-01 6.4026849832243859e-04 0.0000000000000000e+00  1.0116928531041345e-02 1.1982894695687282e-01 0.0000000000000000e+00  2.0107261150681471e-01 -5.8097720684011277e-02 0.0000000000000000e+00  1.7210767369465685e-01 2.1839137052431867e-01 0.0000000000000000e+00  6.4721226052828840e-01 -1.7716109420183418e-01 0.0000000000000000e+00  1.8431981437585859e-01 4.4482927708807424e-03 0.0000000000000000e+00  1.8646158639365679e-01 -5.6371027045443958e-02 0.0000000000000000e+00  1.9379978249887124e-03 1.7042519044169977e-04 0.0000000000000000e+00  2.8204765962352791e-02 -2.8978230932024476e-02 0.0000000000000000e+00  2.6665173748280641e-01 2.4044229929669696e-02 0.0000000000000000e+00  1.5551547280921160e-01 1.4573895085719796e-01 0.0000000000000000e+00  2.4348637776668952e-01 5.1162890469406822e-02 0.0000000000000000e+00  2.1947488342071692e-01 6.6355296492636925e-02 0.0000000000000000e+00  -1.3646770827978444e-03 7.8438743004225542e-02 0.0000000000000000e+00  -2.3127124707097477e-02 9.6146454359182537e-02 0.0000000000000000e+00  -2.2813374467010605e-02 -7.7894364968424210e-02 0.0000000000000000e+00  1.0655206212107850e-01 -2.5804026577820360e-01 0.0000000000000000e+00  2.5985224590065314e-01 6.7993386143018600e-02 0.0000000000000000e+00  2.9874098376657832e-01 -1.6966858523129988e-01 0.0000000000000000e+00  8.4368726069160141e-02 7.3396119775453891e-02 0.0000000000000000e+00  7.3884867958537839e-02 4.4728660921489359e-03 0.0000000000000000e+00  3.9049210906572407e-01 -8.6188192840305003e-03 0.0000000000000000e+00  -1.4581642220845439e-01 -8.8193564528487214e-02 0.0000000000000000e+00  1.6254786903683924e-05 -8.4719349921985460e-02 0.0000000000000000e+00  2.4383741505842075e-03 4.8760781283078154e-02 0.0000000000000000e+00  5.0295058605315604e-04 7.2549397181276495e-02 0.0000000000000000e+00  -2.1685395993246157e-03 6.2790129172116557e-02 0.0000000000000000e+00  3.1687356969111542e-04 7.3213130700200912e-02 0.0000000000000000e+00  9.9461822619052578e-02 -2.7804105068671148e-02 0.0000000000000000e+00  2.9628679869051280e-02 -2.6729564323270966e-02 0.0000000000000000e+00  9.8676432396325467e-02 -2.6641581268824030e-02 0.0000000000000000e+00  2.4575579542628415e-01 4.9945689862404170e-02 0.0000000000000000e+00  2.4575579542628415e-01 4.9945689862404170e-02 0.0000000000000000e+00  3.0004928559957773e-03 6.7961448397181937e-04 0.0000000000000000e+00  2.8362818824843942e-04 -8.4970234035141964e-02 0.0000000000000000e+00  1.9928110480226017e-03 -5.3374063576400760e-02 0.0000000000000000e+00  2.8204765962352791e-02 -2.8978230932024476e-02 0.0000000000000000e+00  1.8749754379194750e-01 3.3478989666843473e-03 0.0000000000000000e+00  1.8431981437585859e-01 4.4482927708807424e-03 0.0000000000000000e+00  -2.9419628756848048e-03 -5.7243279914072541e-02 0.0000000000000000e+00  -3.3379575383358792e-03 -5.4427850340498962e-02 0.0000000000000000e+00  -1.3894512795869776e-02 -1.4367671951457647e-01 0.0000000000000000e+00  8.4385257489945686e-02 4.7914242331445436e-02 0.0000000000000000e+00  3.7470980473381758e-02 1.3490099958837803e-01 0.0000000000000000e+00  6.4490478730571932e-01 -1.7489979049158394e-01 0.0000000000000000e+00  1.0985299068491633e-03 1.2835848388618240e-01 0.0000000000000000e+00  1.4159101938554872e-01 2.7350611486616452e-02 0.0000000000000000e+00  8.7945103834577432e-02 8.3285715381319958e-02 0.0000000000000000e+00  1.4787059459388990e-01 9.0993117987212740e-02 0.0000000000000000e+00  2.6200886613135443e-01 2.0478431395111296e-02 0.0000000000000000e+00  2.6128343136764021e-01 6.2175793114567807e-02 0.0000000000000000e+00  1.5085640960025673e-02 6.0054908990667955e-02 0.0000000000000000e+00  5.1922611413974556e-02 4.3142635393010012e-02 0.0000000000000000e+00  5.3003801238873390e-02 7.7138223712844928e-02 0.0000000000000000e+00  8.0802660357709319e-02 1.4382459763015365e-01 0.0000000000000000e+00  -2.6000030614310565e-02 -8.1428159064793129e-02 0.0000000000000000e+00  1.0587725953961934e-01 2.3462615953146523e-01 0.0000000000000000e+00  -1.2605520024060549e-01 7.2712810725434646e-02 0.0000000000000000e+00  2.9821578877200489e-01 -1.5751401918196767e-01 0.0000000000000000e+00  -1.5300879430502171e-01 8.5236549646866389e-02 0.0000000000000000e+00  6.4232973757881717e-01 -1.7412340744333565e-01 0.0000000000000000e+00  6.4772474325345886e-01 -1.7633132467164633e-01 0.0000000000000000e+00  -8.7102364035328256e-02 3.2944367440438223e-02 0.0000000000000000e+00  8.5150076702534813e-02 -1.3628698096446379e-01 0.0000000000000000e+00  9.4399630252079383e-02 -1.2838026653788939e-01 0.0000000000000000e+00  6.4765982359706087e-01 -1.7614281739199758e-01 0.0000000000000000e+00  5.9208970123900875e-02 4.9972873867915376e-03 0.0000000000000000e+00  1.4542396333024835e-01 1.1034345107680125e-01 0.0000000000000000e+00  6.4539814874234280e-01 -1.6510023113953703e-01 0.0000000000000000e+00  1.1547668028849151e-02 6.9802137678645182e-02 0.0000000000000000e+00  6.4861343801801841e-01 -1.7192507022369138e-01 0.0000000000000000e+00  -1.7127467220445305e-02 6.3540668447025161e-02 0.00000